/*--------------------------------*- C++ -*----------------------------------*\
| =========                 |                                                 |
| \\      /  F ield         | OpenFOAM: The Open Source CFD Toolbox           |
|  \\    /   O peration     | Version:  2206                                  |
|   \\  /    A nd           | Website:  www.openfoam.com                      |
|    \\/     M anipulation  |                                                 |
\*---------------------------------------------------------------------------*/
FoamFile
{
    version     2.0;
    format      ascii;
    arch        "LSB;label=32;scalar=64";
    class       volScalarField;
    location    "60";
    object      p;
}
// * * * * * * * * * * * * * * * * * * * * * * * * * * * * * * * * * * * * * //

dimensions      [0 2 -2 0 0 0 0];

internalField   nonuniform List<scalar> 
100000
(
3.63906e-08
-3.24447e-07
-5.21374e-07
-6.24091e-07
-7.25705e-07
-9.34265e-07
-1.1291e-06
-1.20934e-06
-1.32457e-06
-1.39208e-06
-1.44816e-06
-1.49267e-06
-1.52043e-06
-1.54408e-06
-1.55773e-06
-1.56805e-06
-1.57701e-06
-1.57775e-06
-1.5801e-06
-1.5743e-06
-1.57067e-06
-1.56374e-06
-1.55545e-06
-1.54361e-06
-1.53116e-06
-1.51484e-06
-1.49875e-06
-1.48245e-06
-1.463e-06
-1.44294e-06
-1.41998e-06
-1.39666e-06
-1.37434e-06
-1.348e-06
-1.32234e-06
-1.2928e-06
-1.26417e-06
-1.23554e-06
-1.20407e-06
-1.17234e-06
-1.13781e-06
-1.10331e-06
-1.06978e-06
-1.03262e-06
-9.96068e-07
-9.5598e-07
-9.16715e-07
-8.77754e-07
-8.35864e-07
-7.93986e-07
-7.49204e-07
-7.04704e-07
-6.61074e-07
-6.14022e-07
-5.675e-07
-5.17621e-07
-4.68495e-07
-4.19827e-07
-3.68159e-07
-3.16654e-07
-2.62163e-07
-2.08112e-07
-1.54825e-07
-9.82908e-08
-4.21474e-08
1.71354e-08
7.58708e-08
1.33847e-07
1.95158e-07
2.55834e-07
3.20053e-07
3.83084e-07
4.46262e-07
5.11506e-07
5.77811e-07
6.45433e-07
7.14858e-07
7.84709e-07
8.53081e-07
9.25228e-07
9.9652e-07
1.07132e-06
1.14519e-06
1.21864e-06
1.29503e-06
1.37122e-06
1.45038e-06
1.52904e-06
1.60694e-06
1.68804e-06
1.76871e-06
1.85256e-06
1.93572e-06
2.01827e-06
2.10389e-06
2.18919e-06
2.27756e-06
2.36535e-06
2.45241e-06
2.54265e-06
2.63248e-06
2.72545e-06
2.81776e-06
2.90943e-06
3.0042e-06
3.09861e-06
3.19612e-06
3.293e-06
3.38922e-06
3.48853e-06
3.58753e-06
3.68953e-06
3.79105e-06
3.89169e-06
3.99573e-06
4.09902e-06
4.20592e-06
4.31151e-06
4.41732e-06
4.52508e-06
4.63397e-06
4.74408e-06
4.85605e-06
4.96835e-06
5.07923e-06
5.1938e-06
5.30756e-06
5.42475e-06
5.54106e-06
5.65688e-06
5.77567e-06
5.8942e-06
6.01575e-06
6.13672e-06
6.25697e-06
6.38038e-06
6.50338e-06
6.6295e-06
6.75497e-06
6.87978e-06
7.00769e-06
7.13524e-06
7.26587e-06
7.39589e-06
7.52521e-06
7.65766e-06
7.78972e-06
7.9249e-06
8.05942e-06
8.19329e-06
8.33025e-06
8.46685e-06
8.60654e-06
8.7456e-06
8.88397e-06
9.02548e-06
9.16658e-06
9.31082e-06
9.45437e-06
9.59731e-06
9.74328e-06
9.88898e-06
1.00376e-05
1.01858e-05
1.03331e-05
1.04839e-05
1.06338e-05
1.07873e-05
1.09396e-05
1.1092e-05
1.12464e-05
1.1402e-05
1.15587e-05
1.17173e-05
1.18762e-05
1.20337e-05
1.21949e-05
1.23553e-05
1.2519e-05
1.2682e-05
1.28444e-05
1.30098e-05
1.31749e-05
1.3343e-05
1.35106e-05
1.36774e-05
1.38474e-05
1.4017e-05
1.41897e-05
1.43617e-05
1.45331e-05
1.47076e-05
1.48817e-05
1.50589e-05
1.52355e-05
1.54114e-05
1.55904e-05
1.5769e-05
1.59507e-05
1.61318e-05
1.63122e-05
1.64957e-05
1.66789e-05
1.68651e-05
1.70507e-05
1.72356e-05
1.74236e-05
1.76113e-05
1.7802e-05
1.79922e-05
1.81815e-05
1.83742e-05
1.85662e-05
1.87618e-05
1.8956e-05
1.91504e-05
1.93468e-05
1.95444e-05
1.97431e-05
1.99437e-05
2.01446e-05
2.03441e-05
2.05473e-05
2.07497e-05
2.09554e-05
2.11603e-05
2.13647e-05
2.15721e-05
2.17792e-05
2.19894e-05
2.21989e-05
2.24077e-05
2.26197e-05
2.28313e-05
2.3046e-05
2.326e-05
2.34734e-05
2.36898e-05
2.39059e-05
2.41251e-05
2.43436e-05
2.45615e-05
2.47825e-05
2.50031e-05
2.52268e-05
2.54499e-05
2.56722e-05
2.58977e-05
2.61228e-05
2.63511e-05
2.65786e-05
2.68055e-05
2.70355e-05
2.72651e-05
2.74979e-05
2.77299e-05
2.79614e-05
2.81959e-05
2.843e-05
2.86672e-05
2.89039e-05
2.91397e-05
2.93789e-05
2.96173e-05
2.98594e-05
3.01001e-05
3.0341e-05
3.05839e-05
3.08279e-05
3.10731e-05
3.13202e-05
3.15676e-05
3.18135e-05
3.20632e-05
3.2312e-05
3.25643e-05
3.28157e-05
3.30666e-05
3.33204e-05
3.3574e-05
3.38306e-05
3.40866e-05
3.43419e-05
3.46003e-05
3.48584e-05
3.51195e-05
3.538e-05
3.56399e-05
3.59028e-05
3.61654e-05
3.6431e-05
3.6696e-05
3.69604e-05
3.72278e-05
3.74949e-05
3.77651e-05
3.80346e-05
3.83034e-05
3.85754e-05
3.8847e-05
3.91217e-05
3.93957e-05
3.96691e-05
3.99455e-05
4.02216e-05
4.05008e-05
4.07794e-05
4.10571e-05
4.13383e-05
4.16187e-05
4.19027e-05
4.21853e-05
4.24682e-05
4.2753e-05
4.3039e-05
4.33262e-05
4.36152e-05
4.39045e-05
4.41925e-05
4.4484e-05
4.47748e-05
4.5069e-05
4.53624e-05
4.56552e-05
4.5951e-05
4.62465e-05
4.65451e-05
4.68431e-05
4.71403e-05
4.74407e-05
4.77407e-05
4.80438e-05
4.83462e-05
4.8648e-05
4.89529e-05
4.92574e-05
4.9565e-05
4.9872e-05
5.01782e-05
5.04876e-05
5.07967e-05
5.11088e-05
5.14202e-05
5.1731e-05
5.20449e-05
5.23585e-05
5.26751e-05
5.29911e-05
5.33064e-05
5.36248e-05
5.39428e-05
5.4264e-05
5.45844e-05
5.49043e-05
5.52272e-05
5.55497e-05
5.58753e-05
5.62004e-05
5.65246e-05
5.68522e-05
5.7179e-05
5.75095e-05
5.78386e-05
5.8168e-05
5.84992e-05
5.88316e-05
5.91652e-05
5.95007e-05
5.98365e-05
6.01709e-05
6.05089e-05
6.08462e-05
6.11869e-05
6.15266e-05
6.18659e-05
6.22082e-05
6.25502e-05
6.28952e-05
6.32396e-05
6.35833e-05
6.39301e-05
6.42766e-05
6.46261e-05
6.4975e-05
6.53232e-05
6.56746e-05
6.60255e-05
6.63796e-05
6.6733e-05
6.70857e-05
6.74416e-05
6.7797e-05
6.81556e-05
6.85135e-05
6.88708e-05
6.92311e-05
6.95911e-05
6.99542e-05
7.03166e-05
7.06784e-05
7.10432e-05
7.14077e-05
7.17752e-05
7.21423e-05
7.25084e-05
7.28779e-05
7.32467e-05
7.36191e-05
7.39901e-05
7.43614e-05
7.47347e-05
7.5109e-05
7.54846e-05
7.5862e-05
7.62397e-05
7.6616e-05
7.6996e-05
7.73752e-05
7.77578e-05
7.81395e-05
7.85207e-05
7.89049e-05
7.92889e-05
7.96758e-05
8.00621e-05
8.04478e-05
8.08366e-05
8.12249e-05
8.16164e-05
8.20073e-05
8.23974e-05
8.27907e-05
8.31836e-05
8.35796e-05
8.39749e-05
8.43696e-05
8.47674e-05
8.51648e-05
8.55653e-05
8.59651e-05
8.63643e-05
8.67666e-05
8.71685e-05
8.75735e-05
8.79779e-05
8.83816e-05
8.87884e-05
8.91948e-05
8.96044e-05
9.00132e-05
9.04214e-05
9.08327e-05
9.12437e-05
9.16576e-05
9.20711e-05
9.24837e-05
9.28997e-05
9.33149e-05
9.37338e-05
9.41512e-05
9.4569e-05
9.49886e-05
9.54095e-05
9.58314e-05
9.62553e-05
9.66795e-05
9.71022e-05
9.75287e-05
9.79543e-05
9.83833e-05
9.88115e-05
9.92392e-05
9.96698e-05
0.0001001
0.000100534
0.000100966
0.000101398
0.000101834
0.000102269
0.000102706
0.000103144
0.00010358
0.00010402
0.000104459
0.000104902
0.000105344
0.000105785
0.000106229
0.000106673
0.00010712
0.000107566
0.000108012
0.00010846
0.000108909
0.00010936
0.000109811
0.000110261
0.000110714
0.000111167
0.000111623
0.000112079
0.000112533
0.000112991
0.000113448
0.000113909
0.000114368
0.000114828
0.00011529
0.000115752
0.000116216
0.000116682
0.000117148
0.000117613
0.000118081
0.000118549
0.00011902
0.00011949
0.00011996
0.000120432
0.000120904
0.00012138
0.000121855
0.000122329
0.000122806
0.000123282
0.000123762
0.000124242
0.00012472
0.000125202
0.000125683
0.000126167
0.000126651
0.000127134
0.00012762
0.000128106
0.000128595
0.000129083
0.000129571
0.000130061
0.000130552
0.000131045
0.000131538
0.00013203
0.000132525
0.00013302
0.000133518
0.000134015
0.000134512
0.000135011
0.000135511
0.000136013
0.000136515
0.000137016
0.00013752
0.000138024
0.000138531
0.000139037
0.000139543
0.000140051
0.00014056
0.000141071
0.000141583
0.000142095
0.000142607
0.000143121
0.000143635
0.000144153
0.000144669
0.000145185
0.000145704
0.000146223
0.000146745
0.000147266
0.000147787
0.00014831
0.000148833
0.00014936
0.000149885
0.00015041
0.000150938
0.000151466
0.000151997
0.000152527
0.000153057
0.000153589
0.000154121
0.000154657
0.000155191
0.000155725
0.000156263
0.000156799
0.000157339
0.000157878
0.000158417
0.000158958
0.0001595
0.000160044
0.000160588
0.000161131
0.000161677
0.000162223
0.000162772
0.000163319
0.000163868
0.000164418
0.000164969
0.000165521
0.000166075
0.00016663
0.000167183
0.000167739
0.000168295
0.000168855
0.000169413
0.000169971
0.000170532
0.000171093
0.000171657
0.00017222
0.000172782
0.000173348
0.000173913
0.000174481
0.000175049
0.000175615
0.000176185
0.000176755
0.000177328
0.0001779
0.000178471
0.000179046
0.00017962
0.000180197
0.000180774
0.00018135
0.000181929
0.000182508
0.000183089
0.000183671
0.000184251
0.000184835
0.000185418
0.000186004
0.00018659
0.000187175
0.000187763
0.00018835
0.000188941
0.000189531
0.000190121
0.000190713
0.000191305
0.000191901
0.000192495
0.00019309
0.000193686
0.000194284
0.000194882
0.000195483
0.000196084
0.000196683
0.000197287
0.000197889
0.000198495
0.0001991
0.000199704
0.000200312
0.000200919
0.000201529
0.000202138
0.000202747
0.000203359
0.000203971
0.000204585
0.0002052
0.000205813
0.000206429
0.000207045
0.000207665
0.000208283
0.000208901
0.000209522
0.000210143
0.000210766
0.000211389
0.000212012
0.000212637
0.000213262
0.000213891
0.000214518
0.000215145
0.000215775
0.000216405
0.000217037
0.000217669
0.000218301
0.000218935
0.000219569
0.000220207
0.000220843
0.000221479
0.000222118
0.000222757
0.000223398
0.000224041
0.000224683
0.000225325
0.00022597
0.000226614
0.000227262
0.000227909
0.000228555
0.000229205
0.000229854
0.000230506
0.000231157
0.000231808
0.000232462
0.000233115
0.000233772
0.000234428
0.000235083
0.000235742
0.0002364
0.000237061
0.000237721
0.000238381
0.000239044
0.000239707
0.000240372
0.000241037
0.000241701
0.000242369
0.000243036
0.000243706
0.000244376
0.000245044
0.000245716
0.000246388
0.000247063
0.000247737
0.00024841
0.000249086
0.000249762
0.000250442
0.00025112
0.000251798
0.000252479
0.000253159
0.000253843
0.000254526
0.000255209
0.000255894
0.000256579
0.000257267
0.000257956
0.000258645
0.000259333
0.000260024
0.000260715
0.000261409
0.000262103
0.000262795
0.000263491
0.000264187
0.000264885
0.000265583
0.00026628
0.000266981
0.000267681
0.000268384
0.000269086
0.000269788
0.000270493
0.000271197
0.000271905
0.000272612
0.000273318
0.000274027
0.000274736
0.000275448
0.00027616
0.00027687
0.000277584
0.000278298
0.000279014
0.00027973
0.000280446
0.000281164
0.000281882
0.000282603
0.000283324
0.000284043
0.000284766
0.000285489
0.000286214
0.000286939
0.000287664
0.00028839
0.000289118
0.000289847
0.000290578
0.00029131
0.000292039
0.000292773
0.000293506
0.000294242
0.000294977
0.000295712
0.000296449
0.000297187
0.000297927
0.000298667
0.000299406
0.000300149
0.00030089
0.000301635
0.00030238
0.000303123
0.00030387
0.000304617
0.000305366
0.000306115
0.000306863
0.000307614
0.000308365
0.000309119
0.000309873
0.000310625
0.000311381
0.000312137
0.000312895
0.000313653
0.00031441
0.00031517
0.00031593
0.000316693
0.000317456
0.000318218
0.000318982
0.000319747
0.000320514
0.000321281
0.000322047
0.000322817
0.000323586
0.000324358
0.000325129
0.0003259
0.000326673
0.000327448
0.000328223
0.000329
0.000329778
0.000330554
0.000331334
0.000332113
0.000332896
0.000333678
0.000334459
0.000335243
0.000336027
0.000336814
0.0003376
0.000338386
0.000339174
0.000339963
0.000340754
0.000341545
0.000342335
0.000343128
0.000343921
0.000344717
0.000345512
0.000346307
0.000347105
0.000347902
0.000348702
0.000349502
0.000350301
0.000351104
0.000351905
0.00035271
0.000353515
0.000354318
0.000355125
0.000355932
0.000356741
0.00035755
0.000358358
0.000359169
0.00035998
0.000360794
0.000361607
0.00036242
0.000363235
0.000364052
0.000364869
0.000365688
0.000366508
0.000367326
0.000368148
0.000368969
0.000369794
0.000370617
0.00037144
0.000372266
0.000373092
0.000373921
0.000374749
0.000375577
0.000376407
0.000377238
0.000378071
0.000378904
0.000379736
0.000380571
0.000381406
0.000382244
0.000383081
0.000383917
0.000384757
0.000385596
0.000386439
0.00038728
0.000388121
0.000388966
0.000389809
0.000390656
0.000391503
0.000392348
0.000393197
0.000394045
0.000394897
0.000395747
0.000396597
0.000397451
0.000398303
0.000399159
0.000400015
0.000400869
0.000401727
0.000402584
0.000403445
0.000404304
0.000405164
0.000406025
0.000406888
0.000407752
0.000408618
0.000409484
0.000410348
0.000411217
0.000412084
0.000412955
0.000413825
0.000414695
0.000415567
0.000416439
0.000417315
0.000418189
0.000419063
0.00041994
0.000420817
0.000421697
0.000422576
0.000423454
0.000424336
0.000425217
0.000426102
0.000426985
0.000427868
0.000428754
0.00042964
0.000430529
0.000431417
0.000432305
0.000433195
0.000434085
0.000434979
0.000435871
0.000436763
0.000437658
0.000438553
0.000439451
0.000440348
0.000441245
0.000442145
0.000443044
0.000443946
0.000444847
0.000445749
0.000446652
0.000447557
0.000448463
0.000449371
0.000450279
0.000451185
0.000452095
0.000453005
0.000453918
0.00045483
0.000455741
0.000456656
0.00045757
0.000458487
0.000459404
0.000460319
0.000461238
0.000462157
0.000463079
0.000464
0.00046492
0.000465844
0.000466767
0.000467693
0.000468619
0.000469544
0.000470472
0.000471399
0.00047233
0.00047326
0.00047419
0.000475122
0.000476054
0.00047699
0.000477924
0.000478858
0.000479795
0.000480732
0.000481672
0.000482611
0.000483549
0.000484491
0.000485432
0.000486376
0.00048732
0.000488263
0.000489209
0.000490155
0.000491104
0.000492051
0.000492999
0.000493949
0.0004949
0.000495853
0.000496807
0.000497761
0.000498714
0.000499671
0.000500627
0.000501586
0.000502544
0.000503502
0.000504463
0.000505424
0.000506387
0.000507351
0.000508313
0.000509278
0.000510243
0.000511212
0.000512179
0.000513146
0.000514116
0.000515085
0.000516058
0.00051703
0.000518002
0.000518976
0.00051995
0.000520927
0.000521904
0.00052288
0.000523859
0.000524837
0.000525819
0.0005268
0.000527781
0.000528764
0.000529747
0.000530733
0.000531719
0.000532704
0.000533692
0.000534679
0.00053567
0.00053666
0.00053765
0.000538642
0.000539635
0.000540629
0.000541625
0.000542621
0.000543616
0.000544615
0.000545613
0.000546614
0.000547614
0.000548614
0.000549617
0.000550619
0.000551625
0.00055263
0.000553634
0.000554642
0.000555649
0.000556659
0.000557668
0.000558677
0.000559689
0.0005607
0.000561715
0.000562729
0.000563742
0.000564759
0.000565775
0.000566794
0.000567812
0.00056883
0.000569851
0.000570872
0.000571895
0.000572918
0.000573941
0.000574966
0.000575991
0.000577019
0.000578047
0.000579073
0.000580103
0.000581133
0.000582166
0.000583198
0.000584229
0.000585263
0.000586297
0.000587335
0.000588371
0.000589407
0.000590446
0.000591485
0.000592526
0.000593568
0.000594611
0.000595652
0.000596697
0.000597742
0.000598789
0.000599836
0.000600882
0.000601932
0.000602981
0.000604033
0.000605084
0.000606135
0.000607188
0.000608242
0.000609298
0.000610354
0.00061141
0.000612468
0.000613526
0.000614587
0.000615647
0.000616707
0.00061777
0.000618832
0.000619898
0.000620963
0.000622027
0.000623094
0.000624161
0.000625232
0.000626301
0.00062737
0.000628442
0.000629513
0.000630588
0.000631662
0.000632735
0.000633811
0.000634887
0.000635966
0.000637045
0.000638123
0.000639203
0.000640284
0.000641367
0.000642451
0.000643536
0.000644619
0.000645706
0.000646793
0.000647882
0.000648971
0.000650059
0.00065115
0.000652241
0.000653335
0.000654428
0.000655521
0.000656617
0.000657712
0.000658811
0.000659909
0.000661006
0.000662106
0.000663206
0.000664309
0.000665411
0.000666513
0.000667618
0.000668722
0.00066983
0.000670936
0.000672043
0.000673152
0.000674261
0.000675373
0.000676484
0.000677595
0.000678709
0.000679822
0.000680939
0.000682054
0.00068317
0.000684288
0.000685406
0.000686527
0.000687647
0.000688767
0.00068989
0.000691012
0.000692138
0.000693262
0.000694387
0.000695514
0.000696642
0.000697771
0.000698901
0.000700033
0.000701162
0.000702296
0.000703428
0.000704564
0.0007057
0.000706834
0.000707972
0.000709109
0.00071025
0.000711389
0.000712528
0.000713671
0.000714813
0.000715957
0.000717102
0.000718245
0.000719392
0.000720538
0.000721688
0.000722837
0.000723985
0.000725136
0.000726287
0.000727441
0.000728594
0.000729747
0.000730902
0.000732058
0.000733216
0.000734374
0.000735531
0.000736691
0.000737851
0.000739014
0.000740176
0.000741338
0.000742503
0.000743667
0.000744835
0.000746001
0.000747168
0.000748336
0.000749506
0.000750677
0.00075185
0.000753023
0.000754195
0.00075537
0.000756545
0.000757722
0.0007589
0.000760076
0.000761256
0.000762435
0.000763617
0.000764799
0.00076598
0.000767164
0.000768348
0.000769535
0.000770721
0.000771907
0.000773095
0.000774283
0.000775475
0.000776666
0.000777856
0.000779049
0.000780241
0.000781437
0.000782633
0.000783827
0.000785025
0.000786222
0.000787422
0.000788622
0.000789821
0.000791023
0.000792225
0.00079343
0.000794634
0.000795838
0.000797045
0.000798251
0.00079946
0.000800669
0.000801877
0.000803088
0.000804299
0.000805513
0.000806726
0.000807939
0.000809154
0.00081037
0.000811588
0.000812807
0.000814026
0.000815244
0.000816466
0.000817687
0.000818912
0.000820135
0.000821358
0.000822584
0.00082381
0.000825039
0.000826267
0.000827494
0.000828725
0.000829955
0.000831188
0.000832421
0.000833653
0.000834888
0.000836123
0.000837361
0.000838598
0.000839834
0.000841074
0.000842313
0.000843555
0.000844797
0.000846038
0.000847282
0.000848526
0.000849773
0.000851019
0.000852264
0.000853513
0.000854761
0.000856012
0.000857263
0.000858513
0.000859766
0.000861019
0.000862275
0.00086353
0.000864785
0.000866042
0.0008673
0.000868559
0.00086982
0.000871082
0.000872342
0.000873606
0.000874868
0.000876135
0.0008774
0.000878665
0.000879933
0.000881201
0.000882472
0.000883742
0.000885011
0.000886284
0.000887556
0.000888831
0.000890105
0.000891379
0.000892656
0.000893933
0.000895213
0.000896492
0.00089777
0.000899052
0.000900333
0.000901617
0.000902901
0.000904184
0.00090547
0.000906755
0.000908044
0.000909332
0.00091062
0.00091191
0.0009132
0.000914494
0.000915786
0.000917078
0.000918373
0.000919668
0.000920966
0.000922263
0.000923559
0.000924859
0.000926158
0.00092746
0.000928762
0.000930063
0.000931366
0.000932671
0.000933977
0.000935284
0.000936592
0.000937899
0.000939209
0.000940518
0.000941831
0.000943143
0.000944454
0.000945769
0.000947083
0.0009484
0.000949716
0.000951032
0.000952351
0.00095367
0.000954991
0.000956312
0.000957633
0.000958956
0.000960279
0.000961605
0.000962931
0.000964256
0.000965584
0.000966911
0.000968242
0.000969572
0.000970901
0.000972234
0.000973566
0.000974901
0.000976236
0.00097757
0.000978907
0.000980243
0.000981583
0.000982922
0.00098426
0.000985602
0.000986943
0.000988287
0.00098963
0.000990974
0.000992319
0.000993666
0.000995013
0.000996363
0.000997713
0.000999061
0.00100041
0.00100176
0.00100312
0.00100447
0.00100583
0.00100718
0.00100854
0.0010099
0.00101126
0.00101261
0.00101397
0.00101534
0.0010167
0.00101806
0.00101942
0.00102079
0.00102215
0.00102352
0.00102489
0.00102626
0.00102763
0.001029
0.00103037
0.00103174
0.00103311
0.00103449
0.00103586
0.00103724
0.00103861
0.00103999
0.00104137
0.00104275
0.00104413
0.00104551
0.00104689
0.00104827
0.00104966
0.00105104
0.00105243
0.00105381
0.0010552
0.00105659
0.00105798
0.00105937
0.00106076
0.00106215
0.00106354
0.00106494
0.00106633
0.00106773
0.00106912
0.00107052
0.00107192
0.00107332
0.00107472
0.00107612
0.00107753
0.00107893
0.00108033
0.00108174
0.00108314
0.00108455
0.00108596
0.00108737
0.00108878
0.00109018
0.0010916
0.00109301
0.00109442
0.00109584
0.00109725
0.00109867
0.00110008
0.0011015
0.00110292
0.00110434
0.00110576
0.00110718
0.0011086
0.00111002
0.00111145
0.00111287
0.0011143
0.00111573
0.00111715
0.00111858
0.00112001
0.00112144
0.00112287
0.0011243
0.00112573
0.00112717
0.0011286
0.00113004
0.00113148
0.00113291
0.00113435
0.00113579
0.00113723
0.00113867
0.00114012
0.00114156
0.001143
0.00114445
0.00114589
0.00114734
0.00114879
0.00115024
0.00115168
0.00115314
0.00115459
0.00115604
0.00115749
0.00115895
0.0011604
0.00116186
0.00116331
0.00116477
0.00116623
0.00116769
0.00116915
0.00117061
0.00117207
0.00117354
0.001175
0.00117647
0.00117793
0.0011794
0.00118086
0.00118233
0.0011838
0.00118527
0.00118674
0.00118822
0.00118969
0.00119116
0.00119264
0.00119411
0.00119559
0.00119707
0.00119855
0.00120002
0.0012015
0.00120299
0.00120447
0.00120595
0.00120744
0.00120892
0.00121041
0.00121189
0.00121338
0.00121487
0.00121636
0.00121785
0.00121934
0.00122084
0.00122233
0.00122382
0.00122532
0.00122681
0.00122831
0.00122981
0.00123131
0.00123281
0.00123431
0.00123581
0.00123731
0.00123881
0.00124032
0.00124182
0.00124333
0.00124484
0.00124634
0.00124785
0.00124936
0.00125087
0.00125238
0.00125389
0.00125541
0.00125692
0.00125844
0.00125995
0.00126147
0.00126299
0.0012645
0.00126603
0.00126755
0.00126907
0.00127059
0.00127211
0.00127364
0.00127516
0.00127668
0.00127821
0.00127974
0.00128127
0.0012828
0.00128433
0.00128586
0.00128739
0.00128893
0.00129046
0.001292
0.00129353
0.00129507
0.00129661
0.00129815
0.00129969
0.00130122
0.00130277
0.00130431
0.00130585
0.0013074
0.00130894
0.00131049
0.00131203
0.00131358
0.00131513
0.00131668
0.00131823
0.00131978
0.00132134
0.00132289
0.00132444
0.001326
0.00132755
0.00132911
0.00133067
0.00133223
0.00133379
0.00133535
0.00133691
0.00133847
0.00134003
0.0013416
0.00134316
0.00134473
0.0013463
0.00134786
0.00134943
0.001351
0.00135257
0.00135414
0.00135572
0.00135729
0.00135886
0.00136044
0.00136202
0.00136359
0.00136517
0.00136675
0.00136833
0.00136991
0.00137149
0.00137307
0.00137466
0.00137624
0.00137783
0.00137941
0.001381
0.00138259
0.00138418
0.00138577
0.00138736
0.00138895
0.00139054
0.00139213
0.00139373
0.00139532
0.00139692
0.00139852
0.00140011
0.00140171
0.00140331
0.00140491
0.00140651
0.00140812
0.00140972
0.00141133
0.00141293
0.00141454
0.00141614
0.00141775
0.00141936
0.00142097
0.00142258
0.00142419
0.0014258
0.00142742
0.00142903
0.00143064
0.00143226
0.00143388
0.0014355
0.00143712
0.00143873
0.00144036
0.00144198
0.0014436
0.00144522
0.00144685
0.00144847
0.0014501
0.00145173
0.00145336
0.00145498
0.00145661
0.00145824
0.00145988
0.00146151
0.00146314
0.00146478
0.00146641
0.00146805
0.00146969
0.00147132
0.00147296
0.0014746
0.00147624
0.00147788
0.00147953
0.00148117
0.00148281
0.00148446
0.00148611
0.00148775
0.0014894
0.00149105
0.0014927
0.00149435
0.001496
0.00149765
0.00149931
0.00150096
0.00150262
0.00150427
0.00150593
0.00150759
0.00150925
0.00151091
0.00151257
0.00151423
0.00151589
0.00151755
0.00151922
0.00152089
0.00152255
0.00152422
0.00152589
0.00152756
0.00152923
0.0015309
0.00153257
0.00153424
0.00153592
0.00153759
0.00153926
0.00154094
0.00154262
0.0015443
0.00154598
0.00154765
0.00154934
0.00155102
0.0015527
0.00155438
0.00155607
0.00155775
0.00155944
0.00156113
0.00156282
0.0015645
0.00156619
0.00156788
0.00156958
0.00157127
0.00157296
0.00157466
0.00157635
0.00157805
0.00157975
0.00158144
0.00158314
0.00158484
0.00158654
0.00158824
0.00158995
0.00159165
0.00159335
0.00159506
0.00159677
0.00159847
0.00160018
0.00160189
0.0016036
0.00160531
0.00160702
0.00160874
0.00161045
0.00161216
0.00161388
0.0016156
0.00161731
0.00161903
0.00162075
0.00162247
0.00162419
0.00162591
0.00162764
0.00162936
0.00163109
0.00163281
0.00163454
0.00163626
0.00163799
0.00163972
0.00164145
0.00164318
0.00164491
0.00164665
0.00164838
0.00165012
0.00165185
0.00165359
0.00165532
0.00165706
0.0016588
0.00166054
0.00166228
0.00166402
0.00166577
0.00166751
0.00166925
0.001671
0.00167274
0.00167449
0.00167624
0.00167799
0.00167974
0.00168149
0.00168324
0.001685
0.00168675
0.0016885
0.00169026
0.00169202
0.00169378
0.00169553
0.00169729
0.00169905
0.00170081
0.00170258
0.00170434
0.0017061
0.00170787
0.00170963
0.0017114
0.00171317
0.00171493
0.0017167
0.00171847
0.00172025
0.00172202
0.00172379
0.00172556
0.00172734
0.00172911
0.00173089
0.00173267
0.00173444
0.00173622
0.001738
0.00173979
0.00174157
0.00174335
0.00174513
0.00174692
0.0017487
0.00175049
0.00175228
0.00175406
0.00175585
0.00175764
0.00175943
0.00176123
0.00176302
0.00176481
0.00176661
0.0017684
0.0017702
0.001772
0.0017738
0.0017756
0.0017774
0.0017792
0.001781
0.0017828
0.00178461
0.00178641
0.00178822
0.00179002
0.00179183
0.00179364
0.00179545
0.00179726
0.00179907
0.00180088
0.0018027
0.00180451
0.00180632
0.00180814
0.00180995
0.00181177
0.00181359
0.00181541
0.00181723
0.00181905
0.00182087
0.0018227
0.00182452
0.00182634
0.00182817
0.00183
0.00183182
0.00183365
0.00183548
0.00183731
0.00183914
0.00184097
0.00184281
0.00184464
0.00184647
0.00184831
0.00185015
0.00185199
0.00185382
0.00185566
0.0018575
0.00185935
0.00186119
0.00186303
0.00186487
0.00186672
0.00186857
0.00187041
0.00187226
0.00187411
0.00187596
0.00187781
0.00187966
0.00188151
0.00188336
0.00188522
0.00188707
0.00188893
0.00189078
0.00189264
0.0018945
0.00189636
0.00189822
0.00190008
0.00190194
0.00190381
0.00190567
0.00190754
0.0019094
0.00191127
0.00191313
0.001915
0.00191687
0.00191874
0.00192061
0.00192249
0.00192436
0.00192623
0.00192811
0.00192998
0.00193186
0.00193374
0.00193562
0.00193749
0.00193937
0.00194125
0.00194314
0.00194502
0.00194691
0.00194879
0.00195068
0.00195256
0.00195445
0.00195634
0.00195823
0.00196012
0.00196201
0.0019639
0.0019658
0.00196769
0.00196959
0.00197148
0.00197338
0.00197528
0.00197717
0.00197907
0.00198097
0.00198288
0.00198478
0.00198668
0.00198858
0.00199049
0.0019924
0.0019943
0.00199621
0.00199812
0.00200003
0.00200194
0.00200385
0.00200576
0.00200767
0.00200959
0.0020115
0.00201342
0.00201533
0.00201725
0.00201917
0.00202109
0.00202301
0.00202493
0.00202685
0.00202878
0.0020307
0.00203263
0.00203455
0.00203648
0.00203841
0.00204033
0.00204227
0.0020442
0.00204613
0.00204806
0.00204999
0.00205193
0.00205386
0.0020558
0.00205774
0.00205967
0.00206161
0.00206355
0.00206549
0.00206743
0.00206937
0.00207132
0.00207326
0.00207521
0.00207715
0.0020791
0.00208105
0.002083
0.00208495
0.0020869
0.00208885
0.0020908
0.00209275
0.00209471
0.00209666
0.00209862
0.00210058
0.00210253
0.00210449
0.00210645
0.00210841
0.00211037
0.00211234
0.0021143
0.00211626
0.00211823
0.00212019
0.00212216
0.00212413
0.00212609
0.00212806
0.00213003
0.00213201
0.00213398
0.00213595
0.00213793
0.0021399
0.00214188
0.00214386
0.00214583
0.00214781
0.00214979
0.00215177
0.00215375
0.00215574
0.00215772
0.0021597
0.00216169
0.00216368
0.00216566
0.00216765
0.00216964
0.00217163
0.00217362
0.00217561
0.0021776
0.00217959
0.00218159
0.00218359
0.00218558
0.00218758
0.00218957
0.00219157
0.00219357
0.00219557
0.00219758
0.00219958
0.00220158
0.00220359
0.00220559
0.0022076
0.0022096
0.00221161
0.00221362
0.00221563
0.00221764
0.00221965
0.00222166
0.00222368
0.00222569
0.00222771
0.00222972
0.00223174
0.00223376
0.00223578
0.0022378
0.00223982
0.00224184
0.00224386
0.00224589
0.00224791
0.00224993
0.00225196
0.00225399
0.00225602
0.00225804
0.00226007
0.0022621
0.00226414
0.00226617
0.0022682
0.00227024
0.00227227
0.00227431
0.00227635
0.00227838
0.00228042
0.00228246
0.0022845
0.00228654
0.00228858
0.00229063
0.00229267
0.00229472
0.00229676
0.00229881
0.00230086
0.00230291
0.00230496
0.00230701
0.00230906
0.00231111
0.00231316
0.00231522
0.00231727
0.00231933
0.00232139
0.00232344
0.0023255
0.00232756
0.00232963
0.00233169
0.00233375
0.00233581
0.00233788
0.00233994
0.00234201
0.00234408
0.00234614
0.00234821
0.00235028
0.00235235
0.00235443
0.0023565
0.00235857
0.00236065
0.00236272
0.0023648
0.00236687
0.00236895
0.00237103
0.00237311
0.00237519
0.00237727
0.00237936
0.00238144
0.00238352
0.00238561
0.00238769
0.00238978
0.00239187
0.00239396
0.00239605
0.00239814
0.00240023
0.00240232
0.00240442
0.00240651
0.00240861
0.0024107
0.0024128
0.0024149
0.002417
0.00241909
0.0024212
0.0024233
0.0024254
0.0024275
0.00242961
0.00243171
0.00243382
0.00243593
0.00243804
0.00244015
0.00244226
0.00244437
0.00244648
0.00244859
0.00245071
0.00245282
0.00245494
0.00245705
0.00245917
0.00246129
0.00246341
0.00246553
0.00246765
0.00246977
0.00247189
0.00247401
0.00247614
0.00247827
0.00248039
0.00248252
0.00248465
0.00248678
0.00248891
0.00249103
0.00249317
0.0024953
0.00249743
0.00249957
0.0025017
0.00250384
0.00250598
0.00250811
0.00251025
0.00251239
0.00251453
0.00251667
0.00251882
0.00252096
0.0025231
0.00252525
0.0025274
0.00252954
0.00253169
0.00253384
0.00253599
0.00253814
0.00254029
0.00254245
0.0025446
0.00254676
0.00254891
0.00255107
0.00255323
0.00255538
0.00255754
0.0025597
0.00256186
0.00256403
0.00256619
0.00256835
0.00257052
0.00257268
0.00257485
0.00257702
0.00257918
0.00258135
0.00258352
0.00258569
0.00258787
0.00259004
0.00259221
0.00259439
0.00259656
0.00259874
0.00260091
0.00260309
0.00260527
0.00260745
0.00260963
0.00261181
0.002614
0.00261618
0.00261837
0.00262055
0.00262274
0.00262492
0.00262711
0.0026293
0.00263149
0.00263368
0.00263587
0.00263807
0.00264026
0.00264246
0.00264465
0.00264685
0.00264905
0.00265124
0.00265345
0.00265565
0.00265785
0.00266005
0.00266225
0.00266446
0.00266666
0.00266886
0.00267107
0.00267328
0.00267549
0.0026777
0.00267991
0.00268212
0.00268433
0.00268654
0.00268876
0.00269097
0.00269319
0.0026954
0.00269762
0.00269984
0.00270206
0.00270428
0.0027065
0.00270872
0.00271094
0.00271317
0.00271539
0.00271762
0.00271984
0.00272207
0.0027243
0.00272653
0.00272876
0.00273099
0.00273322
0.00273545
0.00273769
0.00273992
0.00274216
0.00274439
0.00274663
0.00274887
0.00275111
0.00275335
0.00275559
0.00275783
0.00276007
0.00276232
0.00276456
0.00276681
0.00276906
0.0027713
0.00277355
0.0027758
0.00277805
0.0027803
0.00278255
0.00278481
0.00278706
0.00278932
0.00279157
0.00279383
0.00279609
0.00279834
0.0028006
0.00280286
0.00280512
0.00280739
0.00280965
0.00281191
0.00281418
0.00281644
0.00281871
0.00282098
0.00282325
0.00282552
0.00282778
0.00283006
0.00283233
0.0028346
0.00283688
0.00283915
0.00284142
0.0028437
0.00284598
0.00284826
0.00285054
0.00285282
0.0028551
0.00285738
0.00285967
0.00286195
0.00286423
0.00286652
0.00286881
0.00287109
0.00287338
0.00287567
0.00287796
0.00288025
0.00288255
0.00288484
0.00288713
0.00288943
0.00289172
0.00289402
0.00289632
0.00289862
0.00290092
0.00290322
0.00290552
0.00290782
0.00291012
0.00291243
0.00291473
0.00291704
0.00291934
0.00292165