/*--------------------------------*- C++ -*----------------------------------*\
| =========                 |                                                 |
| \\      /  F ield         | OpenFOAM: The Open Source CFD Toolbox           |
|  \\    /   O peration     | Version:  2206                                  |
|   \\  /    A nd           | Website:  www.openfoam.com                      |
|    \\/     M anipulation  |                                                 |
\*---------------------------------------------------------------------------*/
FoamFile
{
    version     2.0;
    format      ascii;
    arch        "LSB;label=32;scalar=64";
    class       volScalarField;
    location    "60";
    object      p;
}
// * * * * * * * * * * * * * * * * * * * * * * * * * * * * * * * * * * * * * //

dimensions      [0 2 -2 0 0 0 0];

internalField   nonuniform List<scalar> 
50000
(
-1.92622e-09
1.12722e-08
1.54027e-08
2.95507e-08
3.86779e-08
4.98712e-08
6.23505e-08
7.81559e-08
9.32256e-08
1.11925e-07
1.31188e-07
1.53368e-07
1.76372e-07
2.02132e-07
2.29038e-07
2.58474e-07
2.89342e-07
3.22492e-07
3.57244e-07
3.94197e-07
4.32856e-07
4.73621e-07
5.16163e-07
5.60788e-07
6.07205e-07
6.55693e-07
7.05997e-07
7.58349e-07
8.12542e-07
8.68764e-07
9.26847e-07
9.86944e-07
1.04892e-06
1.11289e-06
1.17875e-06
1.2466e-06
1.31636e-06
1.38809e-06
1.46173e-06
1.53735e-06
1.61488e-06
1.69438e-06
1.7758e-06
1.85918e-06
1.94449e-06
2.03176e-06
2.12095e-06
2.21211e-06
2.30519e-06
2.40023e-06
2.4972e-06
2.59613e-06
2.69698e-06
2.7998e-06
2.90454e-06
3.01124e-06
3.11987e-06
3.23046e-06
3.34298e-06
3.45745e-06
3.57385e-06
3.69221e-06
3.8125e-06
3.93474e-06
4.05892e-06
4.18505e-06
4.31312e-06
4.44313e-06
4.57508e-06
4.70898e-06
4.84482e-06
4.9826e-06
5.12233e-06
5.264e-06
5.40761e-06
5.55316e-06
5.70066e-06
5.8501e-06
6.00148e-06
6.15481e-06
6.31007e-06
6.46729e-06
6.62644e-06
6.78754e-06
6.95057e-06
7.11556e-06
7.28248e-06
7.45135e-06
7.62215e-06
7.79491e-06
7.9696e-06
8.14624e-06
8.32482e-06
8.50534e-06
8.6878e-06
8.87221e-06
9.05856e-06
9.24685e-06
9.43708e-06
9.62926e-06
9.82338e-06
1.00194e-05
1.02174e-05
1.04174e-05
1.06193e-05
1.08231e-05
1.10289e-05
1.12366e-05
1.14463e-05
1.16579e-05
1.18714e-05
1.20869e-05
1.23043e-05
1.25237e-05
1.2745e-05
1.29682e-05
1.31934e-05
1.34206e-05
1.36497e-05
1.38807e-05
1.41136e-05
1.43485e-05
1.45854e-05
1.48242e-05
1.50649e-05
1.53076e-05
1.55522e-05
1.57988e-05
1.60473e-05
1.62977e-05
1.65501e-05
1.68044e-05
1.70607e-05
1.73189e-05
1.75791e-05
1.78412e-05
1.81052e-05
1.83712e-05
1.86391e-05
1.8909e-05
1.91808e-05
1.94545e-05
1.97302e-05
2.00078e-05
2.02874e-05
2.05689e-05
2.08524e-05
2.11378e-05
2.14251e-05
2.17144e-05
2.20057e-05
2.22988e-05
2.25939e-05
2.2891e-05
2.319e-05
2.34909e-05
2.37938e-05
2.40986e-05
2.44054e-05
2.47141e-05
2.50247e-05
2.53373e-05
2.56519e-05
2.59683e-05
2.62867e-05
2.66071e-05
2.69294e-05
2.72536e-05
2.75798e-05
2.7908e-05
2.8238e-05
2.857e-05
2.8904e-05
2.92399e-05
2.95777e-05
2.99175e-05
3.02592e-05
3.06029e-05
3.09485e-05
3.1296e-05
3.16455e-05
3.19969e-05
3.23503e-05
3.27056e-05
3.30629e-05
3.34221e-05
3.37832e-05
3.41463e-05
3.45113e-05
3.48783e-05
3.52472e-05
3.5618e-05
3.59908e-05
3.63655e-05
3.67422e-05
3.71208e-05
3.75014e-05
3.78839e-05
3.82683e-05
3.86547e-05
3.9043e-05
3.94333e-05
3.98255e-05
4.02197e-05
4.06157e-05
4.10138e-05
4.14138e-05
4.18157e-05
4.22195e-05
4.26253e-05
4.30331e-05
4.34428e-05
4.38544e-05
4.4268e-05
4.46835e-05
4.51009e-05
4.55203e-05
4.59417e-05
4.63649e-05
4.67902e-05
4.72173e-05
4.76464e-05
4.80775e-05
4.85105e-05
4.89454e-05
4.93823e-05
4.98211e-05
5.02618e-05
5.07045e-05
5.11492e-05
5.15957e-05
5.20443e-05
5.24947e-05
5.29471e-05
5.34015e-05
5.38578e-05
5.4316e-05
5.47762e-05
5.52383e-05
5.57023e-05
5.61683e-05
5.66363e-05
5.71062e-05
5.7578e-05
5.80518e-05
5.85275e-05
5.90051e-05
5.94847e-05
5.99662e-05
6.04497e-05
6.09351e-05
6.14225e-05
6.19118e-05
6.2403e-05
6.28962e-05
6.33913e-05
6.38884e-05
6.43874e-05
6.48884e-05
6.53913e-05
6.58961e-05
6.64029e-05
6.69116e-05
6.74223e-05
6.79349e-05
6.84494e-05
6.89659e-05
6.94843e-05
7.00047e-05
7.0527e-05
7.10513e-05
7.15775e-05
7.21056e-05
7.26357e-05
7.31677e-05
7.37017e-05
7.42376e-05
7.47754e-05
7.53152e-05
7.58569e-05
7.64006e-05
7.69462e-05
7.74938e-05
7.80433e-05
7.85947e-05
7.91481e-05
7.97034e-05
8.02607e-05
8.08199e-05
8.1381e-05
8.19441e-05
8.25092e-05
8.30761e-05
8.3645e-05
8.42159e-05
8.47887e-05
8.53634e-05
8.59401e-05
8.65187e-05
8.70993e-05
8.76818e-05
8.82663e-05
8.88527e-05
8.9441e-05
9.00313e-05
9.06235e-05
9.12176e-05
9.18137e-05
9.24118e-05
9.30118e-05
9.36137e-05
9.42176e-05
9.48234e-05
9.54311e-05
9.60408e-05
9.66525e-05
9.7266e-05
9.78816e-05
9.8499e-05
9.91184e-05
9.97398e-05
0.000100363
0.000100988
0.000101615
0.000102245
0.000102876
0.000103509
0.000104144
0.00010478
0.000105419
0.00010606
0.000106703
0.000107347
0.000107994
0.000108642
0.000109293
0.000109945
0.0001106
0.000111256
0.000111914
0.000112574
0.000113237
0.000113901
0.000114567
0.000115235
0.000115904
0.000116576
0.00011725
0.000117926
0.000118603
0.000119283
0.000119965
0.000120648
0.000121333
0.000122021
0.00012271
0.000123401
0.000124095
0.00012479
0.000125487
0.000126186
0.000126887
0.00012759
0.000128294
0.000129001
0.00012971
0.000130421
0.000131133
0.000131848
0.000132564
0.000133283
0.000134003
0.000134725
0.00013545
0.000136176
0.000136904
0.000137634
0.000138366
0.0001391
0.000139836
0.000140574
0.000141314
0.000142055
0.000142799
0.000143545
0.000144292
0.000145042
0.000145793
0.000146547
0.000147302
0.000148059
0.000148818
0.00014958
0.000150343
0.000151108
0.000151875
0.000152644
0.000153414
0.000154187
0.000154962
0.000155739
0.000156517
0.000157298
0.00015808
0.000158865
0.000159651
0.00016044
0.00016123
0.000162022
0.000162816
0.000163612
0.00016441
0.00016521
0.000166012
0.000166816
0.000167622
0.00016843
0.000169239
0.000170051
0.000170865
0.00017168
0.000172498
0.000173317
0.000174138
0.000174962
0.000175787
0.000176614
0.000177443
0.000178274
0.000179107
0.000179942
0.000180779
0.000181618
0.000182459
0.000183301
0.000184146
0.000184993
0.000185841
0.000186692
0.000187544
0.000188398
0.000189255
0.000190113
0.000190973
0.000191835
0.000192699
0.000193565
0.000194433
0.000195303
0.000196175
0.000197049
0.000197924
0.000198802
0.000199682
0.000200563
0.000201447
0.000202332
0.00020322
0.000204109
0.000205
0.000205893
0.000206788
0.000207686
0.000208585
0.000209485
0.000210388
0.000211293
0.0002122
0.000213109
0.000214019
0.000214932
0.000215847
0.000216763
0.000217682
0.000218602
0.000219524
0.000220448
0.000221375
0.000222303
0.000223233
0.000224165
0.000225099
0.000226035
0.000226973
0.000227912
0.000228854
0.000229798
0.000230744
0.000231691
0.000232641
0.000233592
0.000234545
0.000235501
0.000236458
0.000237417
0.000238378
0.000239341
0.000240307
0.000241273
0.000242242
0.000243213
0.000244186
0.000245161
0.000246138
0.000247116
0.000248097
0.000249079
0.000250064
0.00025105
0.000252038
0.000253029
0.000254021
0.000255015
0.000256011
0.000257009
0.000258009
0.000259011
0.000260015
0.000261021
0.000262029
0.000263038
0.00026405
0.000265064
0.000266079
0.000267097
0.000268116
0.000269137
0.000270161
0.000271186
0.000272213
0.000273242
0.000274273
0.000275306
0.000276341
0.000277378
0.000278417
0.000279458
0.0002805
0.000281545
0.000282592
0.00028364
0.000284691
0.000285743
0.000286797
0.000287854
0.000288912
0.000289972
0.000291034
0.000292098
0.000293164
0.000294232
0.000295302
0.000296374
0.000297448
0.000298523
0.000299601
0.000300681
0.000301762
0.000302846
0.000303931
0.000305019
0.000306108
0.000307199
0.000308292
0.000309387
0.000310484
0.000311584
0.000312684
0.000313787
0.000314892
0.000315999
0.000317108
0.000318218
0.000319331
0.000320446
0.000321562
0.00032268
0.000323801
0.000324923
0.000326047
0.000327174
0.000328302
0.000329432
0.000330564
0.000331698
0.000332834
0.000333972
0.000335111
0.000336253
0.000337397
0.000338543
0.00033969
0.00034084
0.000341991
0.000343144
0.0003443
0.000345457
0.000346616
0.000347777
0.00034894
0.000350106
0.000351273
0.000352441
0.000353612
0.000354785
0.00035596
0.000357137
0.000358315
0.000359496
0.000360678
0.000361863
0.000363049
0.000364237
0.000365428
0.00036662
0.000367814
0.00036901
0.000370208
0.000371408
0.00037261
0.000373814
0.00037502
0.000376228
0.000377437
0.000378649
0.000379863
0.000381078
0.000382296
0.000383515
0.000384736
0.00038596
0.000387185
0.000388412
0.000389641
0.000390872
0.000392105
0.00039334
0.000394577
0.000395816
0.000397057
0.000398299
0.000399544
0.000400791
0.000402039
0.00040329
0.000404542
0.000405796
0.000407053
0.000408311
0.000409571
0.000410833
0.000412097
0.000413363
0.000414631
0.000415901
0.000417173
0.000418447
0.000419722
0.000421
0.00042228
0.000423561
0.000424845
0.00042613
0.000427418
0.000428707
0.000429998
0.000431291
0.000432586
0.000433884
0.000435183
0.000436484
0.000437786
0.000439091
0.000440398
0.000441707
0.000443017
0.00044433
0.000445645
0.000446961
0.00044828
0.0004496
0.000450922
0.000452247
0.000453573
0.000454901
0.000456231
0.000457563
0.000458897
0.000460233
0.000461571
0.000462911
0.000464252
0.000465596
0.000466942
0.000468289
0.000469639
0.00047099
0.000472344
0.000473699
0.000475056
0.000476415
0.000477777
0.00047914
0.000480505
0.000481872
0.000483241
0.000484611
0.000485984
0.000487359
0.000488736
0.000490114
0.000491495
0.000492877
0.000494262
0.000495648
0.000497037
0.000498427
0.000499819
0.000501213
0.000502609
0.000504007
0.000505407
0.000506809
0.000508213
0.000509619
0.000511027
0.000512436
0.000513848
0.000515262
0.000516677
0.000518095
0.000519514
0.000520935
0.000522359
0.000523784
0.000525211
0.00052664
0.000528071
0.000529504
0.000530939
0.000532376
0.000533815
0.000535256
0.000536699
0.000538143
0.00053959
0.000541038
0.000542489
0.000543941
0.000545396
0.000546852
0.00054831
0.00054977
0.000551232
0.000552696
0.000554162
0.00055563
0.0005571
0.000558572
0.000560046
0.000561522
0.000562999
0.000564479
0.00056596
0.000567444
0.000568929
0.000570417
0.000571906
0.000573397
0.000574891
0.000576386
0.000577883
0.000579382
0.000580883
0.000582386
0.00058389
0.000585397
0.000586906
0.000588417
0.000589929
0.000591444
0.00059296
0.000594479
0.000595999
0.000597521
0.000599046
0.000600572
0.0006021
0.00060363
0.000605162
0.000606696
0.000608232
0.00060977
0.00061131
0.000612852
0.000614395
0.000615941
0.000617488
0.000619038
0.000620589
0.000622143
0.000623698
0.000625255
0.000626815
0.000628376
0.000629939
0.000631504
0.000633071
0.00063464
0.000636211
0.000637783
0.000639358
0.000640935
0.000642514
0.000644094
0.000645677
0.000647261
0.000648847
0.000650436
0.000652026
0.000653618
0.000655212
0.000656809
0.000658407
0.000660007
0.000661609
0.000663212
0.000664818
0.000666426
0.000668036
0.000669647
0.000671261
0.000672876
0.000674494
0.000676113
0.000677735
0.000679358
0.000680983
0.00068261
0.00068424
0.000685871
0.000687504
0.000689139
0.000690775
0.000692414
0.000694055
0.000695698
0.000697342
0.000698989
0.000700638
0.000702288
0.00070394
0.000705595
0.000707251
0.000708909
0.00071057
0.000712232
0.000713896
0.000715562
0.00071723
0.0007189
0.000720571
0.000722245
0.000723921
0.000725599
0.000727278
0.00072896
0.000730643
0.000732329
0.000734016
0.000735705
0.000737397
0.00073909
0.000740785
0.000742482
0.000744181
0.000745882
0.000747585
0.00074929
0.000750997
0.000752705
0.000754416
0.000756129
0.000757843
0.00075956
0.000761278
0.000762998
0.000764721
0.000766445
0.000768171
0.000769899
0.000771629
0.000773361
0.000775095
0.000776831
0.000778569
0.000780309
0.000782051
0.000783794
0.00078554
0.000787288
0.000789037
0.000790789
0.000792542
0.000794297
0.000796055
0.000797814
0.000799575
0.000801338
0.000803103
0.00080487
0.000806639
0.00080841
0.000810183
0.000811957
0.000813734
0.000815513
0.000817293
0.000819076
0.00082086
0.000822647
0.000824435
0.000826225
0.000828018
0.000829812
0.000831608
0.000833406
0.000835206
0.000837008
0.000838812
0.000840618
0.000842425
0.000844235
0.000846047
0.00084786
0.000849676
0.000851493
0.000853313
0.000855134
0.000856957
0.000858783
0.00086061
0.000862439
0.00086427
0.000866103
0.000867938
0.000869775
0.000871614
0.000873454
0.000875297
0.000877142
0.000878988
0.000880837
0.000882687
0.00088454
0.000886394
0.00088825
0.000890109
0.000891969
0.000893831
0.000895695
0.000897561
0.000899429
0.000901299
0.000903171
0.000905044
0.00090692
0.000908798
0.000910677
0.000912559
0.000914442
0.000916328
0.000918215
0.000920105
0.000921996
0.000923889
0.000925784
0.000927681
0.00092958
0.000931481
0.000933384
0.000935289
0.000937196
0.000939105
0.000941015
0.000942928
0.000944842
0.000946759
0.000948677
0.000950598
0.00095252
0.000954444
0.000956371
0.000958299
0.000960229
0.000962161
0.000964095
0.000966031
0.000967969
0.000969908
0.00097185
0.000973794
0.000975739
0.000977687
0.000979636
0.000981588
0.000983541
0.000985497
0.000987454
0.000989413
0.000991374
0.000993337
0.000995302
0.000997269
0.000999238
0.00100121
0.00100318
0.00100516
0.00100713
0.00100911
0.00101109
0.00101308
0.00101506
0.00101705
0.00101903
0.00102102
0.00102302
0.00102501
0.00102701
0.00102901
0.00103101
0.00103301
0.00103501
0.00103702
0.00103902
0.00104103
0.00104305
0.00104506
0.00104708
0.00104909
0.00105111
0.00105313
0.00105516
0.00105718
0.00105921
0.00106124
0.00106327
0.0010653
0.00106734
0.00106937
0.00107141
0.00107345
0.0010755
0.00107754
0.00107959
0.00108164
0.00108369
0.00108574
0.00108779
0.00108985
0.00109191
0.00109397
0.00109603
0.00109809
0.00110016
0.00110223
0.0011043
0.00110637
0.00110844
0.00111052
0.0011126
0.00111468
0.00111676
0.00111884
0.00112093
0.00112301
0.0011251
0.0011272
0.00112929
0.00113138
0.00113348
0.00113558
0.00113768
0.00113978
0.00114189
0.001144
0.0011461
0.00114821
0.00115033
0.00115244
0.00115456
0.00115668
0.0011588
0.00116092
0.00116304
0.00116517
0.0011673
0.00116943
0.00117156
0.00117369
0.00117583
0.00117797
0.00118011
0.00118225
0.00118439
0.00118654
0.00118869
0.00119084
0.00119299
0.00119514
0.0011973
0.00119945
0.00120161
0.00120377
0.00120594
0.0012081
0.00121027
0.00121244
0.00121461
0.00121678
0.00121896
0.00122113
0.00122331
0.00122549
0.00122767
0.00122986
0.00123205
0.00123423
0.00123642
0.00123862
0.00124081
0.00124301
0.0012452
0.0012474
0.00124961
0.00125181
0.00125402
0.00125622
0.00125843
0.00126065
0.00126286
0.00126507
0.00126729
0.00126951
0.00127173
0.00127396
0.00127618
0.00127841
0.00128064
0.00128287
0.0012851
0.00128734
0.00128957
0.00129181
0.00129405
0.0012963
0.00129854
0.00130079
0.00130304
0.00130529
0.00130754
0.00130979
0.00131205
0.00131431
0.00131657
0.00131883
0.00132109
0.00132336
0.00132563
0.0013279
0.00133017
0.00133244
0.00133472
0.001337
0.00133928
0.00134156
0.00134384
0.00134613
0.00134841
0.0013507
0.00135299
0.00135529
0.00135758
0.00135988
0.00136218
0.00136448
0.00136678
0.00136909
0.00137139
0.0013737
0.00137601
0.00137833
0.00138064
0.00138296
0.00138528
0.0013876
0.00138992
0.00139224
0.00139457
0.0013969
0.00139923
0.00140156
0.00140389
0.00140623
0.00140857
0.00141091
0.00141325
0.00141559
0.00141794
0.00142029
0.00142264
0.00142499
0.00142734
0.0014297
0.00143205
0.00143441
0.00143677
0.00143914
0.0014415
0.00144387
0.00144624
0.00144861
0.00145098
0.00145336
0.00145573
0.00145811
0.00146049
0.00146287
0.00146526
0.00146764
0.00147003
0.00147242
0.00147482
0.00147721
0.00147961
0.001482
0.0014844
0.00148681
0.00148921
0.00149162
0.00149402
0.00149643
0.00149884
0.00150126
0.00150367
0.00150609
0.00150851
0.00151093
0.00151336
0.00151578
0.00151821
0.00152064
0.00152307
0.0015255
0.00152794
0.00153037
0.00153281
0.00153525
0.0015377
0.00154014
0.00154259
0.00154503
0.00154749
0.00154994
0.00155239
0.00155485
0.00155731
0.00155977
0.00156223
0.00156469
0.00156716
0.00156963
0.0015721
0.00157457
0.00157704
0.00157952
0.001582
0.00158448
0.00158696
0.00158944
0.00159193
0.00159441
0.0015969
0.00159939
0.00160189
0.00160438
0.00160688
0.00160938
0.00161188
0.00161438
0.00161689
0.00161939
0.0016219
0.00162441
0.00162693
0.00162944
0.00163196
0.00163448
0.001637
0.00163952
0.00164204
0.00164457
0.0016471
0.00164963
0.00165216
0.00165469
0.00165723
0.00165977
0.00166231
0.00166485
0.00166739
0.00166994
0.00167248
0.00167503
0.00167759
0.00168014
0.00168269
0.00168525
0.00168781
0.00169037
0.00169294
0.0016955
0.00169807
0.00170064
0.00170321
0.00170578
0.00170835
0.00171093
0.00171351
0.00171609
0.00171867
0.00172126
0.00172384
0.00172643
0.00172902
0.00173161
0.00173421
0.00173681
0.0017394
0.001742
0.00174461
0.00174721
0.00174981
0.00175242
0.00175503
0.00175764
0.00176026
0.00176287
0.00176549
0.00176811
0.00177073
0.00177335
0.00177598
0.00177861
0.00178124
0.00178387
0.0017865
0.00178914
0.00179177
0.00179441
0.00179705
0.00179969
0.00180234
0.00180499
0.00180763
0.00181028
0.00181294
0.00181559
0.00181825
0.00182091
0.00182357
0.00182623
0.00182889
0.00183156
0.00183423
0.0018369
0.00183957
0.00184224
0.00184492
0.0018476
0.00185027
0.00185296
0.00185564
0.00185833
0.00186101
0.0018637
0.00186639
0.00186909
0.00187178
0.00187448
0.00187718
0.00187988
0.00188258
0.00188529
0.00188799
0.0018907
0.00189341
0.00189613
0.00189884
0.00190156
0.00190427
0.001907
0.00190972
0.00191244
0.00191517
0.0019179
0.00192063
0.00192336
0.00192609
0.00192883
0.00193157
0.00193431
0.00193705
0.00193979
0.00194254
0.00194528
0.00194803
0.00195079
0.00195354
0.00195629
0.00195905
0.00196181
0.00196457
0.00196733
0.0019701
0.00197287
0.00197564
0.00197841
0.00198118
0.00198395
0.00198673
0.00198951
0.00199229
0.00199507
0.00199786
0.00200064
0.00200343
0.00200622
0.00200901
0.00201181
0.0020146
0.0020174
0.0020202
0.002023
0.00202581
0.00202861
0.00203142
0.00203423
0.00203704
0.00203986
0.00204267
0.00204549
0.00204831
0.00205113
0.00205395
0.00205678
0.00205961
0.00206244
0.00206527
0.0020681
0.00207093
0.00207377
0.00207661
0.00207945
0.00208229
0.00208514
0.00208799
0.00209083
0.00209368
0.00209654
0.00209939
0.00210225
0.00210511
0.00210797
0.00211083
0.00211369
0.00211656
0.00211943
0.0021223
0.00212517
0.00212804
0.00213092
0.00213379
0.00213667
0.00213956
0.00214244
0.00214532
0.00214821
0.0021511
0.00215399
0.00215689
0.00215978
0.00216268
0.00216558
0.00216848
0.00217138
0.00217429
0.00217719
0.0021801
0.00218301
0.00218592
0.00218884
0.00219176
0.00219467
0.00219759
0.00220052
0.00220344
0.00220637
0.0022093
0.00221223
0.00221516
0.00221809
0.00222103
0.00222397
0.00222691
0.00222985
0.00223279
0.00223574
0.00223868
0.00224163
0.00224458
0.00224754
0.00225049
0.00225345
0.00225641
0.00225937
0.00226233
0.0022653
0.00226827
0.00227124
0.00227421
0.00227718
0.00228015
0.00228313
0.00228611
0.00228909
0.00229207
0.00229506
0.00229804
0.00230103
0.00230402
0.00230701
0.00231001
0.002313
0.002316
0.002319
0.002322
0.00232501
0.00232801
0.00233102
0.00233403
0.00233704
0.00234006
0.00234307
0.00234609
0.00234911
0.00235213
0.00235515
0.00235818
0.00236121
0.00236423
0.00236727
0.0023703
0.00237333
0.00237637
0.00237941
0.00238245
0.00238549
0.00238854
0.00239158
0.00239463
0.00239768
0.00240074
0.00240379
0.00240685
0.0024099
0.00241296
0.00241603
0.00241909
0.00242216
0.00242523
0.0024283
0.00243137
0.00243444
0.00243752
0.00244059
0.00244367
0.00244676
0.00244984
0.00245292
0.00245601
0.0024591
0.00246219
0.00246529
0.00246838
0.00247148
0.00247458
0.00247768
0.00248078
0.00248389
0.00248699
0.0024901
0.00249321
0.00249632
0.00249944
0.00250256
0.00250567
0.00250879
0.00251192
0.00251504
0.00251817
0.00252129
0.00252442
0.00252756
0.00253069
0.00253383
0.00253696
0.0025401
0.00254325
0.00254639
0.00254954
0.00255268
0.00255583
0.00255898
0.00256214
0.00256529
0.00256845
0.00257161
0.00257477
0.00257793
0.0025811
0.00258427
0.00258743
0.00259061
0.00259378
0.00259695
0.00260013
0.00260331
0.00260649
0.00260967
0.00261286
0.00261604
0.00261923
0.00262242
0.00262561
0.00262881
0.002632
0.0026352
0.0026384
0.0026416
0.00264481
0.00264801
0.00265122
0.00265443
0.00265764
0.00266086
0.00266407
0.00266729
0.00267051
0.00267373
0.00267695
0.00268018
0.00268341
0.00268663
0.00268987
0.0026931
0.00269633
0.00269957
0.00270281
0.00270605
0.00270929
0.00271254
0.00271578
0.00271903
0.00272228
0.00272554
0.00272879
0.00273205
0.0027353
0.00273856
0.00274183
0.00274509
0.00274836
0.00275162
0.00275489
0.00275817
0.00276144
0.00276472
0.00276799
0.00277127
0.00277455
0.00277784
0.00278112
0.00278441
0.0027877
0.00279099
0.00279428
0.00279758
0.00280088
0.00280418
0.00280748
0.00281078
0.00281408
0.00281739
0.0028207
0.00282401
0.00282732
0.00283064
0.00283395
0.00283727
0.00284059
0.00284392
0.00284724
0.00285057
0.00285389
0.00285722
0.00286056
0.00286389
0.00286723
0.00287056
0.0028739
0.00287725
0.00288059
0.00288393
0.00288728
0.00289063
0.00289398
0.00289734
0.00290069
0.00290405
0.00290741
0.00291077
0.00291413
0.0029175
0.00292087
0.00292423
0.0029276
0.00293098
0.00293435
0.00293773
0.00294111
0.00294449
0.00294787
0.00295126
0.00295464
0.00295803
0.00296142
0.00296481
0.00296821
0.0029716
0.002975
0.0029784
0.0029818
0.00298521
0.00298861
0.00299202
0.00299543
0.00299884
0.00300226
0.00300567
0.00300909
0.00301251
0.00301593
0.00301935
0.00302278
0.0030262
0.00302963
0.00303306
0.0030365
0.00303993
0.00304337
0.00304681
0.00305025
0.00305369
0.00305714
0.00306058
0.00306403
0.00306748
0.00307093
0.00307439
0.00307785
0.0030813
0.00308476
0.00308823
0.00309169
0.00309516
0.00309862
0.00310209
0.00310557
0.00310904
0.00311252
0.00311599
0.00311947
0.00312295
0.00312644
0.00312992
0.00313341
0.0031369
0.00314039
0.00314388
0.00314738
0.00315088
0.00315438
0.00315788
0.00316138
0.00316488
0.00316839
0.0031719
0.00317541
0.00317892
0.00318244
0.00318595
0.00318947
0.00319299
0.00319652
0.00320004
0.00320357
0.00320709
0.00321062
0.00321416
0.00321769
0.00322123
0.00322476
0.0032283
0.00323185
0.00323539
0.00323893
0.00324248
0.00324603
0.00324958
0.00325314
0.00325669
0.00326025
0.00326381
0.00326737
0.00327093
0.0032745
0.00327806
0.00328163
0.0032852
0.00328878
0.00329235
0.00329593
0.00329951
0.00330309
0.00330667
0.00331025
0.00331384
0.00331743
0.00332102
0.00332461
0.00332821
0.0033318
0.0033354
0.003339
0.0033426
0.00334621
0.00334981
0.00335342
0.00335703
0.00336064
0.00336425
0.00336787
0.00337149
0.00337511
0.00337873
0.00338235
0.00338598
0.0033896
0.00339323
0.00339686
0.0034005
0.00340413
0.00340777
0.00341141
0.00341505
0.00341869
0.00342234
0.00342598
0.00342963
0.00343328
0.00343693
0.00344059
0.00344424
0.0034479
0.00345156
0.00345523
0.00345889
0.00346256
0.00346622
0.00346989
0.00347357
0.00347724
0.00348091
0.00348459
0.00348827
0.00349195
0.00349564
0.00349932
0.00350301
0.0035067
0.00351039
0.00351408
0.00351778
0.00352148
0.00352517
0.00352888
0.00353258
0.00353628
0.00353999
0.0035437
0.00354741
0.00355112
0.00355484
0.00355855
0.00356227
0.00356599
0.00356971
0.00357344
0.00357716
0.00358089
0.00358462
0.00358836
0.00359209
0.00359583
0.00359956
0.0036033
0.00360704
0.00361079
0.00361453
0.00361828
0.00362203
0.00362578
0.00362954
0.00363329
0.00363705
0.00364081
0.00364457
0.00364833
0.0036521
0.00365586
0.00365963
0.0036634
0.00366718
0.00367095
0.00367473
0.00367851
0.00368229
0.00368607
0.00368985
0.00369364
0.00369743
0.00370122
0.00370501
0.00370881
0.0037126
0.0037164
0.0037202
0.003724
0.00372781
0.00373161
0.00373542
0.00373923
0.00374304
0.00374685
0.00375067
0.00375449
0.00375831
0.00376213
0.00376595
0.00376978
0.0037736
0.00377743
0.00378126
0.0037851
0.00378893
0.00379277
0.00379661
0.00380045
0.00380429
0.00380814
0.00381198
0.00381583
0.00381968
0.00382353
0.00382739
0.00383124
0.0038351
0.00383896
0.00384282
0.00384669
0.00385055
0.00385442
0.00385829
0.00386216
0.00386604
0.00386991
0.00387379
0.00387767
0.00388155
0.00388544
0.00388932
0.00389321
0.0038971
0.00390099
0.00390488
0.00390878
0.00391268
0.00391657
0.00392048
0.00392438
0.00392828
0.00393219
0.0039361
0.00394001
0.00394392
0.00394784
0.00395175
0.00395567
0.00395959
0.00396351
0.00396744
0.00397136
0.00397529
0.00397922
0.00398315
0.00398709
0.00399102
0.00399496
0.0039989
0.00400284
0.00400679
0.00401073
0.00401468
0.00401863
0.00402258
0.00402654
0.00403049
0.00403445
0.00403841
0.00404237
0.00404633
0.0040503
0.00405426
0.00405823
0.0040622
0.00406618
0.00407015
0.00407413
0.00407811
0.00408209
0.00408607
0.00409005
0.00409404
0.00409803
0.00410202
0.00410601
0.00411
0.004114
0.004118
0.004122
0.004126
0.00413
0.00413401
0.00413802
0.00414203
0.00414604
0.00415005
0.00415407
0.00415809
0.00416211
0.00416613
0.00417015
0.00417418
0.0041782
0.00418223
0.00418626
0.0041903
0.00419433
0.00419837
0.00420241
0.00420645
0.00421049
0.00421453
0.00421858
0.00422263
0.00422668
0.00423073
0.00423479
0.00423884
0.0042429
0.00424696
0.00425102
0.00425509
0.00425915
0.00426322
0.00426729
0.00427136
0.00427544
0.00427951
0.00428359
0.00428767
0.00429175
0.00429584
0.00429992
0.00430401
0.0043081
0.00431219
0.00431628
0.00432038
0.00432447
0.00432857
0.00433267
0.00433678
0.00434088
0.00434499
0.0043491
0.00435321
0.00435732
0.00436144
0.00436555
0.00436967
0.00437379
0.00437791
0.00438204
0.00438616
0.00439029
0.00439442
0.00439855
0.00440269
0.00440682
0.00441096
0.0044151
0.00441924
0.00442339
0.00442753
0.00443168
0.00443583
0.00443998
0.00444413
0.00444829
0.00445245
0.00445661
0.00446077
0.00446493
0.0044691
0.00447326
0.00447743
0.0044816
0.00448578
0.00448995
0.00449413
0.00449831
0.00450249
0.00450667
0.00451085
0.00451504
0.00451923
0.00452342
0.00452761
0.0045318
0.004536
0.0045402
0.0045444
0.0045486
0.0045528
0.00455701
0.00456122
0.00456543
0.00456964
0.00457385
0.00457807
0.00458229
0.00458651
0.00459073
0.00459495
0.00459918
0.0046034
0.00460763
0.00461186
0.0046161
0.00462033
0.00462457
0.00462881
0.00463305
0.00463729
0.00464153
0.00464578
0.00465003
0.00465428
0.00465853
0.00466279
0.00466704
0.0046713
0.00467556
0.00467982
0.00468409
0.00468835
0.00469262
0.00469689
0.00470116
0.00470544
0.00470971
0.00471399
0.00471827
0.00472255
0.00472684
0.00473112
0.00473541
0.0047397
0.00474399
0.00474828
0.00475258
0.00475687
0.00476117
0.00476547
0.00476978
0.00477408
0.00477839
0.0047827
0.00478701
0.00479132
0.00479563
0.00479995
0.00480427
0.00480859
0.00481291
0.00481724
0.00482156
0.00482589
0.00483022
0.00483455
0.00483889
0.00484322
0.00484756
0.0048519
0.00485624
0.00486059
0.00486493
0.00486928
0.00487363
0.00487798
0.00488233
0.00488669
0.00489105
0.00489541
0.00489977
0.00490413
0.00490849
0.00491286
0.00491723
0.0049216
0.00492597
0.00493035
0.00493473
0.0049391
0.00494349
0.00494787
0.00495225
0.00495664
0.00496103
0.00496542
0.00496981
0.0049742
0.0049786
0.004983
0.0049874
0.0049918
0.0049962
0.00500061
0.00500502
0.00500943
0.00501384
0.00501825
0.00502267
0.00502709
0.0050315
0.00503593
0.00504035
0.00504477
0.0050492
0.00505363
0.00505806
0.00506249
0.00506693
0.00507137
0.00507581
0.00508025
0.00508469
0.00508913
0.00509358
0.00509803
0.00510248
0.00510693
0.00511139
0.00511584
0.0051203
0.00512476
0.00512922
0.00513369
0.00513815
0.00514262
0.00514709
0.00515156
0.00515604
0.00516051
0.00516499
0.00516947
0.00517395
0.00517843
0.00518292
0.00518741
0.0051919
0.00519639
0.00520088
0.00520538
0.00520987
0.00521437
0.00521887
0.00522338
0.00522788
0.00523239
0.0052369
0.00524141
0.00524592
0.00525043
0.00525495
0.00525947
0.00526399
0.00526851
0.00527304
0.00527756
0.00528209
0.00528662
0.00529115
0.00529569
0.00530022
0.00530476
0.0053093
0.00531384
0.00531839
0.00532293
0.00532748
0.00533203
0.00533658
0.00534113
0.00534569
0.00535025
0.00535481
0.00535937
0.00536393
0.00536849
0.00537306
0.00537763
0.0053822
0.00538677
0.00539135
0.00539593
0.0054005
0.00540508
0.00540967
0.00541425
0.00541884
0.00542343
0.00542802
0.00543261
0.0054372
0.0054418
0.0054464
0.005451
0.0054556
0.0054602
0.00546481
0.00546942
0.00547403
0.00547864
0.00548325
0.00548787
0.00549248
0.0054971
0.00550173
0.00550635
0.00551097
0.0055156
0.00552023
0.00552486
0.00552949
0.00553413
0.00553877
0.0055434
0.00554805
0.00555269
0.00555733
0.00556198
0.00556663
0.00557128
0.00557593
0.00558059
0.00558524
0.0055899
0.00559456
0.00559922
0.00560389
0.00560855
0.00561322
0.00561789
0.00562256
0.00562724
0.00563191
0.00563659
0.00564127
0.00564595
0.00565063
0.00565532
0.00566001
0.0056647
0.00566939
0.00567408
0.00567878
0.00568347
0.00568817
0.00569287
0.00569758
0.00570228
0.00570699
0.0057117
0.00571641
0.00572112
0.00572583
0.00573055
0.00573527
0.00573999
0.00574471
0.00574944
0.00575416
0.00575889
0.00576362
0.00576835
0.00577309
0.00577782
0.00578256
0.0057873
0.00579204
0.00579679
0.00580153
0.00580628
0.00581103
0.00581578
0.00582053
0.00582529
0.00583005
0.0058348
0.00583957
0.00584433
0.00584909
0.00585386
0.00585863
0.0058634
0.00586817
0.00587295
0.00587772
0.0058825
0.00588728
0.00589207
0.00589685
0.00590164
0.00590643
0.00591122
0.00591601
0.0059208
0.0059256
0.0059304
0.0059352
0.00594
0.0059448
0.00594961
0.00595442
0.00595923
0.00596404
0.00596885
0.00597367
0.00597848
0.0059833
0.00598812
0.00599295
0.00599777
0.0060026
0.00600743
0.00601226
0.00601709
0.00602193
0.00602677
0.0060316
0.00603644
0.00604129
0.00604613
0.00605098
0.00605583
0.00606068
0.00606553
0.00607038
0.00607524
0.0060801
0.00608496
0.00608982
0.00609469
0.00609955
0.00610442
0.00610929
0.00611416
0.00611904
0.00612391
0.00612879
0.00613367
0.00613855
0.00614343
0.00614832
0.00615321
0.0061581
0.00616299
0.00616788
0.00617277
0.00617767
0.00618257
0.00618747
0.00619237
0.00619728
0.00620219
0.0062071
0.00621201
0.00621692
0.00622183
0.00622675
0.00623167
0.00623659
0.00624151
0.00624643
0.00625136
0.00625629
0.00626122
0.00626615
0.00627109
0.00627602
0.00628096
0.0062859
0.00629084
0.00629578
0.00630073
0.00630568
0.00631063
0.00631558
0.00632053
0.00632549
0.00633044
0.0063354
0.00634036
0.00634533
0.00635029
0.00635526
0.00636023
0.0063652
0.00637017
0.00637515
0.00638012
0.0063851
0.00639008
0.00639507
0.00640005
0.00640504
0.00641003
0.00641502
0.00642001
0.006425
0.00643
0.006435
0.00644
0.006445
0.00645
0.00645501
0.00646002
0.00646502
0.00647004
0.00647505
0.00648007
0.00648508
0.0064901