/*--------------------------------*- C++ -*----------------------------------*\
| =========                 |                                                 |
| \\      /  F ield         | OpenFOAM: The Open Source CFD Toolbox           |
|  \\    /   O peration     | Version:  2206                                  |
|   \\  /    A nd           | Website:  www.openfoam.com                      |
|    \\/     M anipulation  |                                                 |
\*---------------------------------------------------------------------------*/
FoamFile
{
    version     2.0;
    format      ascii;
    arch        "LSB;label=32;scalar=64";
    class       surfaceScalarField;
    location    "60";
    object      phi;
}
// * * * * * * * * * * * * * * * * * * * * * * * * * * * * * * * * * * * * * //

dimensions      [0 3 -1 0 0 0 0];

oriented        oriented;

internalField   nonuniform List<scalar> 
94990
(
-2.46969e-25
1.03979e-23
-3.49527e-25
1.52766e-24
-1.79598e-24
6.3956e-25
-2.652e-24
1.34918e-24
-4.46009e-24
1.73062e-24
-6.75335e-24
2.5118e-24
-9.25025e-24
2.50426e-24
-1.20984e-23
2.9438e-24
-1.56123e-23
3.56541e-24
-1.93323e-23
3.75462e-24
-2.35456e-23
4.28504e-24
-2.80738e-23
4.52956e-24
-3.3112e-23
5.11887e-24
-3.84523e-23
5.32242e-24
-4.42883e-23
5.92064e-24
-5.04388e-23
6.12083e-24
-5.70399e-23
6.68702e-24
-6.40168e-23
6.9396e-24
-7.14161e-23
7.48513e-24
-7.91944e-23
7.73566e-24
-8.73794e-23
8.26995e-24
-9.59726e-23
8.54681e-24
-1.04952e-22
9.06273e-24
-1.14342e-22
9.34123e-24
-1.24125e-22
9.86473e-24
-1.34313e-22
1.01365e-23
-1.44895e-22
1.06622e-23
-1.55884e-22
1.0936e-23
-1.67264e-22
1.14576e-23
-1.79054e-22
1.17363e-23
-1.91231e-22
1.22531e-23
-2.03822e-22
1.25365e-23
-2.16798e-22
1.30491e-23
-2.30188e-22
1.33364e-23
-2.43963e-22
1.38454e-23
-2.58154e-22
1.41363e-23
-2.72727e-22
1.46418e-23
-2.87717e-22
1.49362e-23
-3.03089e-22
1.54385e-23
-3.18879e-22
1.57362e-23
-3.3505e-22
1.62352e-23
-3.51639e-22
1.65361e-23
-3.6861e-22
1.7032e-23
-3.85998e-22
1.73361e-23
-4.03767e-22
1.7829e-23
-4.21955e-22
1.81361e-23
-4.40523e-22
1.8626e-23
-4.5951e-22
1.89361e-23
-4.78878e-22
1.94232e-23
-4.98663e-22
1.97361e-23
-5.1883e-22
2.02204e-23
-5.39414e-22
2.05361e-23
-5.60381e-22
2.10177e-23
-5.81764e-22
2.13361e-23
-6.0353e-22
2.18151e-23
-6.25712e-22
2.21361e-23
-6.48277e-22
2.26126e-23
-6.71257e-22
2.2936e-23
-6.94622e-22
2.34101e-23
-7.18401e-22
2.3736e-23
-7.42565e-22
2.42078e-23
-7.67143e-22
2.45359e-23
-7.92107e-22
2.50054e-23
-8.17483e-22
2.53358e-23
-8.43246e-22
2.58032e-23
-8.69421e-22
2.61357e-23
-8.95983e-22
2.6601e-23
-9.22957e-22
2.69355e-23
-9.50319e-22
2.73989e-23
-9.78091e-22
2.77353e-23
-1.00625e-21
2.81968e-23
-1.03482e-21
2.85351e-23
-1.06378e-21
2.89947e-23
-1.09315e-21
2.93349e-23
-1.12291e-21
2.97927e-23
-1.15308e-21
3.01347e-23
-1.18364e-21
3.05908e-23
-1.21461e-21
3.09344e-23
-1.24596e-21
3.13889e-23
-1.27773e-21
3.17341e-23
-1.30989e-21
3.2187e-23
-1.34245e-21
3.25338e-23
-1.37541e-21
3.29852e-23
-1.40877e-21
3.33335e-23
-1.44253e-21
3.37834e-23
-1.47669e-21
3.41332e-23
-1.51124e-21
3.45817e-23
-1.54621e-21
3.49328e-23
-1.58156e-21
3.538e-23
-1.61732e-21
3.57324e-23
-1.65347e-21
3.61783e-23
-1.69003e-21
3.6532e-23
-1.72698e-21
3.69766e-23
-1.76434e-21
3.73316e-23
-1.80209e-21
3.7775e-23
-1.84025e-21
3.81311e-23
-1.8788e-21
3.85734e-23
-1.91775e-21
3.89307e-23
-1.9571e-21
3.93718e-23
-1.99686e-21
3.97302e-23
-2.03701e-21
4.01703e-23
-2.07756e-21
4.05297e-23
-2.11851e-21
4.09687e-23
-2.15986e-21
4.13292e-23
-2.2016e-21
4.17672e-23
-2.24376e-21
4.21286e-23
-2.2863e-21
4.25657e-23
-2.32925e-21
4.29281e-23
-2.37259e-21
4.33643e-23
-2.41634e-21
4.37275e-23
-2.46049e-21
4.41628e-23
-2.50503e-21
4.45269e-23
-2.54998e-21
4.49614e-23
-2.59532e-21
4.53263e-23
-2.64106e-21
4.576e-23
-2.68721e-21
4.61257e-23
-2.73375e-21
4.65586e-23
-2.78069e-21
4.69251e-23
-2.82803e-21
4.73572e-23
-2.87578e-21
4.77245e-23
-2.92392e-21
4.81558e-23
-2.97246e-21
4.85239e-23
-3.0214e-21
4.89545e-23
-3.07074e-21
4.93232e-23
-3.12047e-21
4.97531e-23
-3.17061e-21
5.01225e-23
-3.22115e-21
5.05518e-23
-3.27209e-21
5.09219e-23
-3.32342e-21
5.13505e-23
-3.37516e-21
5.17212e-23
-3.42729e-21
5.21492e-23
-3.47983e-21
5.25205e-23
-3.53276e-21
5.29479e-23
-3.5861e-21
5.33198e-23
-3.63983e-21
5.37466e-23
-3.69396e-21
5.41191e-23
-3.74849e-21
5.45454e-23
-3.80343e-21
5.49183e-23
-3.85876e-21
5.53441e-23
-3.91449e-21
5.57176e-23
-3.97062e-21
5.61429e-23
-4.02715e-21
5.65168e-23
-4.08408e-21
5.69416e-23
-4.14141e-21
5.73161e-23
-4.19913e-21
5.77404e-23
-4.25726e-21
5.81153e-23
-4.31579e-21
5.85392e-23
-4.37472e-21
5.89146e-23
-4.43404e-21
5.9338e-23
-4.49377e-21
5.97138e-23
-4.55389e-21
6.01368e-23
-4.61442e-21
6.0513e-23
-4.67534e-21
6.09356e-23
-4.73667e-21
6.13122e-23
-4.79839e-21
6.17344e-23
-4.86051e-21
6.21114e-23
-4.92303e-21
6.25332e-23
-4.98595e-21
6.29106e-23
-5.04927e-21
6.3332e-23
-5.113e-21
6.37098e-23
-5.17711e-21
6.41308e-23
-5.24163e-21
6.4509e-23
-5.30655e-21
6.49297e-23
-5.37187e-21
6.53082e-23
-5.43759e-21
6.57285e-23
-5.50371e-21
6.61074e-23
-5.57022e-21
6.65274e-23
-5.63714e-21
6.69065e-23
-5.70445e-21
6.73262e-23
-5.77217e-21
6.77057e-23
-5.84028e-21
6.81251e-23
-5.9088e-21
6.85049e-23
-5.97771e-21
6.89239e-23
-6.04703e-21
6.9304e-23
-6.11674e-21
6.97228e-23
-6.18685e-21
7.01032e-23
-6.25736e-21
7.05217e-23
-6.32827e-21
7.09023e-23
-6.39958e-21
7.13206e-23
-6.4713e-21
7.17014e-23
-6.5434e-21
7.21195e-23
-6.61591e-21
7.25006e-23
-6.68882e-21
7.29183e-23
-6.76213e-21
7.32997e-23
-6.83584e-21
7.37172e-23
-6.90995e-21
7.40988e-23
-6.98445e-21
7.45161e-23
-7.05936e-21
7.48979e-23
-7.13466e-21
7.5315e-23
-7.21037e-21
7.56971e-23
-7.28647e-21
7.61139e-23
-7.36298e-21
7.64962e-23
-7.43988e-21
7.69128e-23
-7.51718e-21
7.72953e-23
-7.59488e-21
7.77118e-23
-7.67299e-21
7.80944e-23
-7.75149e-21
7.85107e-23
-7.83039e-21
7.88935e-23
-7.90969e-21
7.93096e-23
-7.98939e-21
7.96926e-23
-8.06949e-21
8.01085e-23
-8.14999e-21
8.04917e-23
-8.23089e-21
8.09074e-23
-8.31218e-21
8.12908e-23
-8.39388e-21
8.17064e-23
-8.47598e-21
8.20899e-23
-8.55847e-21
8.25053e-23
-8.64137e-21
8.2889e-23
-8.72467e-21
8.33042e-23
-8.80836e-21
8.3688e-23
-8.89245e-21
8.41032e-23
-8.97695e-21
8.44871e-23
-9.06184e-21
8.49021e-23
-9.14713e-21
8.52862e-23
-9.23283e-21
8.57011e-23
-9.31892e-21
8.60853e-23
-9.40541e-21
8.65e-23
-9.4923e-21
8.68843e-23
-9.57959e-21
8.7299e-23
-9.66728e-21
8.76834e-23
-9.75537e-21
8.80979e-23
-9.84386e-21
8.84825e-23
-9.93275e-21
8.88969e-23
-1.0022e-20
8.92815e-23
-1.01117e-20
8.96958e-23
-1.02018e-20
9.00806e-23
-1.02923e-20
9.04948e-23
-1.03832e-20
9.08797e-23
-1.04745e-20
9.12938e-23
-1.05661e-20
9.16787e-23
-1.06582e-20
9.20927e-23
-1.07507e-20
9.24778e-23
-1.08436e-20
9.28917e-23
-1.09369e-20
9.32768e-23
-1.10306e-20
9.36907e-23
-1.11246e-20
9.40759e-23
-1.12191e-20
9.44896e-23
-1.1314e-20
9.48749e-23
-1.14093e-20
9.52886e-23
-1.1505e-20
9.5674e-23
-1.1601e-20
9.60876e-23
-1.16975e-20
9.6473e-23
-1.17944e-20
9.68866e-23
-1.18917e-20
9.7272e-23
-1.19894e-20
9.76855e-23
-1.20874e-20
9.80711e-23
-1.21859e-20
9.84845e-23
-1.22848e-20
9.88701e-23
-1.23841e-20
9.92835e-23
-1.24837e-20
9.96691e-23
-1.25838e-20
1.00082e-22
-1.26843e-20
1.00468e-22
-1.27852e-20
1.00881e-22
-1.28864e-20
1.01267e-22
-1.29881e-20
1.0168e-22
-1.30902e-20
1.02066e-22
-1.31926e-20
1.02479e-22
-1.32955e-20
1.02865e-22
-1.33988e-20
1.03278e-22
-1.35024e-20
1.03664e-22
-1.36065e-20
1.04077e-22
-1.3711e-20
1.04463e-22
-1.38159e-20
1.04876e-22
-1.39211e-20
1.05262e-22
-1.40268e-20
1.05675e-22
-1.41329e-20
1.06061e-22
-1.42393e-20
1.06474e-22
-1.43462e-20
1.0686e-22
-1.44534e-20
1.07273e-22
-1.45611e-20
1.07659e-22
-1.46692e-20
1.08072e-22
-1.47776e-20
1.08458e-22
-1.48865e-20
1.08871e-22
-1.49958e-20
1.09257e-22
-1.51054e-20
1.0967e-22
-1.52155e-20
1.10056e-22
-1.53259e-20
1.10469e-22
-1.54368e-20
1.10855e-22
-1.55481e-20
1.11268e-22
-1.56597e-20
1.11654e-22
-1.57718e-20
1.12067e-22
-1.58842e-20
1.12453e-22
-1.59971e-20
1.12866e-22
-1.61104e-20
1.13252e-22
-1.6224e-20
1.13665e-22
-1.63381e-20
1.14051e-22
-1.64525e-20
1.14464e-22
-1.65674e-20
1.1485e-22
-1.66826e-20
1.15263e-22
-1.67983e-20
1.15649e-22
-1.69143e-20
1.16063e-22
-1.70308e-20
1.16448e-22
-1.71476e-20
1.16862e-22
-1.72649e-20
1.17247e-22
-1.73826e-20
1.17661e-22
-1.75006e-20
1.18046e-22
-1.76191e-20
1.1846e-22
-1.77379e-20
1.18845e-22
-1.78572e-20
1.19259e-22
-1.79768e-20
1.19644e-22
-1.80969e-20
1.20058e-22
-1.82173e-20
1.20443e-22
-1.83381e-20
1.20857e-22
-1.84594e-20
1.21242e-22
-1.8581e-20
1.21656e-22
-1.87031e-20
1.22041e-22
-1.88255e-20
1.22455e-22
-1.89484e-20
1.2284e-22
-1.90716e-20
1.23254e-22
-1.91953e-20
1.23639e-22
-1.93193e-20
1.24053e-22
-1.94438e-20
1.24438e-22
-1.95686e-20
1.24852e-22
-1.96938e-20
1.25237e-22
-1.98195e-20
1.25651e-22
-1.99455e-20
1.26036e-22
-2.0072e-20
1.2645e-22
-2.01988e-20
1.26835e-22
-2.0326e-20
1.27249e-22
-2.04537e-20
1.27634e-22
-2.05817e-20
1.28048e-22
-2.07102e-20
1.28433e-22
-2.0839e-20
1.28847e-22
-2.09682e-20
1.29232e-22
-2.10979e-20
1.29646e-22
-2.12279e-20
1.30031e-22
-2.13583e-20
1.30445e-22
-2.14892e-20
1.3083e-22
-2.16204e-20
1.31244e-22
-2.1752e-20
1.31629e-22
-2.18841e-20
1.32043e-22
-2.20165e-20
1.32428e-22
-2.21493e-20
1.32842e-22
-2.22826e-20
1.33227e-22
-2.24162e-20
1.33641e-22
-2.25502e-20
1.34026e-22
-2.26847e-20
1.3444e-22
-2.28195e-20
1.34825e-22
-2.29547e-20
1.35239e-22
-2.30903e-20
1.35624e-22
-2.32264e-20
1.36038e-22
-2.33628e-20
1.36423e-22
-2.34996e-20
1.36837e-22
-2.36369e-20
1.37222e-22
-2.37745e-20
1.37636e-22
-2.39125e-20
1.38021e-22
-2.40509e-20
1.38435e-22
-2.41898e-20
1.3882e-22
-2.4329e-20
1.39234e-22
-2.44686e-20
1.39619e-22
-2.46086e-20
1.40033e-22
-2.47491e-20
1.40418e-22
-2.48899e-20
1.40832e-22
-2.50311e-20
1.41217e-22
-2.51727e-20
1.41632e-22
-2.53147e-20
1.42016e-22
-2.54572e-20
1.42431e-22
-2.56e-20
1.42815e-22
-2.57432e-20
1.4323e-22
-2.58868e-20
1.43614e-22
-2.60308e-20
1.44029e-22
-2.61752e-20
1.44413e-22
-2.63201e-20
1.44828e-22
-2.64653e-20
1.45212e-22
-2.66109e-20
1.45627e-22
-2.67569e-20
1.46011e-22
-2.69033e-20
1.46426e-22
-2.70501e-20
1.4681e-22
-2.71974e-20
1.47225e-22
-2.7345e-20
1.47609e-22
-2.7493e-20
1.48024e-22
-2.76414e-20
1.48408e-22
-2.77902e-20
1.48823e-22
-2.79394e-20
1.49207e-22
-2.8089e-20
1.49622e-22
-2.8239e-20
1.50006e-22
-2.83894e-20
1.50421e-22
-2.85403e-20
1.50805e-22
-2.86915e-20
1.5122e-22
-2.88431e-20
1.51604e-22
-2.89951e-20
1.52019e-22
-2.91475e-20
1.52402e-22
-2.93003e-20
1.52818e-22
-2.94535e-20
1.53201e-22
-2.96071e-20
1.53617e-22
-2.97611e-20
1.54e-22
-2.99155e-20
1.54416e-22
-3.00703e-20
1.54799e-22
-3.02255e-20
1.55215e-22
-3.03811e-20
1.55598e-22
-3.05371e-20
1.56014e-22
-3.06935e-20
1.56397e-22
-3.08503e-20
1.56814e-22
-3.10075e-20
1.57196e-22
-3.11651e-20
1.57613e-22
-3.13231e-20
1.57995e-22
-3.14815e-20
1.58412e-22
-3.16403e-20
1.58794e-22
-3.17995e-20
1.59211e-22
-3.19591e-20
1.59593e-22
-3.21191e-20
1.6001e-22
-3.22795e-20
1.60392e-22
-3.24403e-20
1.60809e-22
-3.26015e-20
1.61191e-22
-3.27631e-20
1.61608e-22
-3.29251e-20
1.6199e-22
-3.30875e-20
1.62407e-22
-3.32503e-20
1.62789e-22
-3.34135e-20
1.63206e-22
-3.35771e-20
1.63588e-22
-3.37411e-20
1.64005e-22
-3.39055e-20
1.64387e-22
-3.40703e-20
1.64804e-22
-3.42355e-20
1.65186e-22
-3.44011e-20
1.65603e-22
-3.4567e-20
1.65985e-22
-3.47334e-20
1.66402e-22
-3.49002e-20
1.66784e-22
-3.50674e-20
1.67201e-22
-3.5235e-20
1.67583e-22
-3.5403e-20
1.68e-22
-3.55714e-20
1.68382e-22
-3.57402e-20
1.68799e-22
-3.59093e-20
1.6918e-22
-3.60789e-20
1.69599e-22
-3.62489e-20
1.69979e-22
-3.64193e-20
1.70398e-22
-3.65901e-20
1.70778e-22
-3.67613e-20
1.71197e-22
-3.69329e-20
1.71577e-22
-3.71048e-20
1.71996e-22
-3.72772e-20
1.72376e-22
-3.745e-20
1.72795e-22
-3.76232e-20
1.73175e-22
-3.77968e-20
1.73594e-22
-3.79707e-20
1.73974e-22
-3.81451e-20
1.74393e-22
-3.83199e-20
1.74773e-22
-3.84951e-20
1.75192e-22
-3.86707e-20
1.75572e-22
-3.88466e-20
1.75991e-22
-3.9023e-20
1.76371e-22
-3.91998e-20
1.7679e-22
-3.9377e-20
1.7717e-22
-3.95545e-20
1.77589e-22
-3.97325e-20
1.77969e-22
-3.99109e-20
1.78388e-22
-4.00897e-20
1.78768e-22
-4.02688e-20
1.79187e-22
-4.04484e-20
1.79567e-22
-4.06284e-20
1.79986e-22
-4.08088e-20
1.80366e-22
-4.09895e-20
1.80786e-22
-4.11707e-20
1.81165e-22
-4.13523e-20
1.81585e-22
-4.15342e-20
1.81964e-22
-4.17166e-20
1.82384e-22
-4.18994e-20
1.82762e-22
-4.20825e-20
1.83183e-22
-4.22661e-20
1.83561e-22
-4.24501e-20
1.83982e-22
-4.26344e-20
1.8436e-22
-4.28192e-20
1.84781e-22
-4.30044e-20
1.85159e-22
-4.31899e-20
1.8558e-22
-4.33759e-20
1.85958e-22
-4.35623e-20
1.86379e-22
-4.3749e-20
1.86757e-22
-4.39362e-20
1.87178e-22
-4.41238e-20
1.87556e-22
-4.43117e-20
1.87977e-22
-4.45001e-20
1.88355e-22
-4.46888e-20
1.88776e-22
-4.4878e-20
1.89154e-22
-4.50676e-20
1.89575e-22
-4.52575e-20
1.89953e-22
-4.54479e-20
1.90374e-22
-4.56387e-20
1.90752e-22
-4.58298e-20
1.91174e-22
-4.60214e-20
1.91551e-22
-4.62133e-20
1.91973e-22
-4.64057e-20
1.9235e-22
-4.65984e-20
1.92772e-22
-4.67916e-20
1.93149e-22
-4.69851e-20
1.93571e-22
-4.71791e-20
1.93948e-22
-4.73735e-20
1.9437e-22
-4.75682e-20
1.94746e-22
-4.77634e-20
1.95169e-22
-4.79589e-20
1.95545e-22
-4.81549e-20
1.95968e-22
-4.83512e-20
1.96344e-22
-4.8548e-20
1.96767e-22
-4.87451e-20
1.97143e-22
-4.89427e-20
1.97566e-22
-4.91406e-20
1.97942e-22
-4.9339e-20
1.98365e-22
-4.95377e-20
1.98741e-22
-4.97369e-20
1.99164e-22
-4.99364e-20
1.9954e-22
-5.01364e-20
1.99963e-22
-5.03367e-20
2.00339e-22
-5.05375e-20
2.00763e-22
-5.07386e-20
2.01138e-22
-5.09401e-20
2.01562e-22
-5.11421e-20
2.01937e-22
-5.13444e-20
2.02361e-22
-5.15472e-20
2.02736e-22
-5.17503e-20
2.0316e-22
-5.19539e-20
2.03535e-22
-5.21578e-20
2.03959e-22
-5.23622e-20
2.04334e-22
-5.25669e-20
2.04758e-22
-5.2772e-20
2.05132e-22
-5.29776e-20
2.05557e-22
-5.31835e-20
2.05931e-22
-5.33898e-20
2.06356e-22
-5.35966e-20
2.0673e-22
-5.38037e-20
2.07155e-22
-5.40113e-20
2.07529e-22
-5.42192e-20
2.07954e-22
-5.44275e-20
2.08328e-22
-5.46363e-20
2.08753e-22
-5.48454e-20
2.09127e-22
-5.50549e-20
2.09553e-22
-5.52649e-20
2.09926e-22
-5.54752e-20
2.10352e-22
-5.56859e-20
2.10725e-22
-5.58971e-20
2.11151e-22
-5.61086e-20
2.11524e-22
-5.63205e-20
2.1195e-22
-5.65329e-20
2.12323e-22
-5.67456e-20
2.12749e-22
-5.69587e-20
2.13122e-22
-5.71723e-20
2.13548e-22
-5.73862e-20
2.13921e-22
-5.76005e-20
2.14347e-22
-5.78153e-20
2.1472e-22
-5.80304e-20
2.15146e-22
-5.82459e-20
2.15518e-22
-5.84618e-20
2.15945e-22
-5.86782e-20
2.16317e-22
-5.88949e-20
2.16744e-22
-5.9112e-20
2.17116e-22
-5.93295e-20
2.17544e-22
-5.95475e-20
2.17915e-22
-5.97658e-20
2.18343e-22
-5.99845e-20
2.18714e-22
-6.02036e-20
2.19142e-22
-6.04232e-20
2.19513e-22
-6.06431e-20
2.19941e-22
-6.08634e-20
2.20312e-22
-6.10841e-20
2.2074e-22
-6.13052e-20
2.21111e-22
-6.15268e-20
2.21539e-22
-6.17487e-20
2.2191e-22
-6.1971e-20
2.22338e-22
-6.21937e-20
2.22709e-22
-6.24168e-20
2.23137e-22
-6.26404e-20
2.23508e-22
-6.28643e-20
2.23936e-22
-6.30886e-20
2.24306e-22
-6.33133e-20
2.24735e-22
-6.35384e-20
2.25105e-22
-6.37639e-20
2.25535e-22
-6.39899e-20
2.25904e-22
-6.42162e-20
2.26334e-22
-6.44429e-20
2.26703e-22
-6.467e-20
2.27133e-22
-6.48975e-20
2.27502e-22
-6.51254e-20
2.27932e-22
-6.53537e-20
2.28301e-22
-6.55824e-20
2.28731e-22
-6.58115e-20
2.291e-22
-6.60411e-20
2.2953e-22
-6.6271e-20
2.29899e-22
-6.65013e-20
2.30329e-22
-6.6732e-20
2.30698e-22
-6.69631e-20
2.31128e-22
-6.71946e-20
2.31497e-22
-6.74265e-20
2.31927e-22
-6.76588e-20
2.32296e-22
-6.78915e-20
2.32726e-22
-6.81246e-20
2.33094e-22
-6.83581e-20
2.33526e-22
-6.8592e-20
2.33893e-22
-6.88263e-20
2.34325e-22
-6.9061e-20
2.34692e-22
-6.92961e-20
2.35124e-22
-6.95316e-20
2.35491e-22
-6.97675e-20
2.35923e-22
-7.00038e-20
2.3629e-22
-7.02405e-20
2.36722e-22
-7.04776e-20
2.37089e-22
-7.07151e-20
2.37521e-22
-7.0953e-20
2.37888e-22
-7.11913e-20
2.3832e-22
-7.143e-20
2.38687e-22
-7.16691e-20
2.39119e-22
-7.19086e-20
2.39486e-22
-7.21485e-20
2.39918e-22
-7.23888e-20
2.40285e-22
-7.26295e-20
2.40717e-22
-7.28706e-20
2.41084e-22
-7.31121e-20
2.41517e-22
-7.3354e-20
2.41882e-22
-7.35963e-20
2.42316e-22
-7.3839e-20
2.42681e-22
-7.40821e-20
2.43115e-22
-7.43256e-20
2.4348e-22
-7.45695e-20
2.43914e-22
-7.48138e-20
2.44279e-22
-7.50584e-20
2.44713e-22
-7.53035e-20
2.45078e-22
-7.5549e-20
2.45512e-22
-7.57949e-20
2.45877e-22
-7.60412e-20
2.46311e-22
-7.62879e-20
2.46676e-22
-7.6535e-20
2.4711e-22
-7.67825e-20
2.47475e-22
-7.70304e-20
2.47909e-22
-7.72787e-20
2.48274e-22
-7.75273e-20
2.48709e-22
-7.77764e-20
2.49073e-22
-7.80259e-20
2.49508e-22
-7.82758e-20
2.49871e-22
-7.85261e-20
2.50307e-22
-7.87768e-20
2.5067e-22
-7.90278e-20
2.51106e-22
-7.92793e-20
2.51469e-22
-7.95312e-20
2.51905e-22
-7.97835e-20
2.52268e-22
-8.00362e-20
2.52704e-22
-8.02892e-20
2.53067e-22
-8.05427e-20
2.53503e-22
-8.07966e-20
2.53866e-22
-8.10509e-20
2.54302e-22
-8.13056e-20
2.54665e-22
-8.15606e-20
2.55101e-22
-8.18161e-20
2.55464e-22
-8.2072e-20
2.55901e-22
-8.23283e-20
2.56263e-22
-8.25849e-20
2.567e-22
-8.2842e-20
2.57062e-22
-8.30995e-20
2.57499e-22
-8.33574e-20
2.5786e-22
-8.36156e-20
2.58298e-22
-8.38743e-20
2.58659e-22
-8.41334e-20
2.59097e-22
-8.43929e-20
2.59458e-22
-8.46527e-20
2.59896e-22
-8.4913e-20
2.60257e-22
-8.51737e-20
2.60695e-22
-8.54347e-20
2.61056e-22
-8.56962e-20
2.61494e-22
-8.59581e-20
2.61855e-22
-8.62203e-20
2.62294e-22
-8.6483e-20
2.62654e-22
-8.67461e-20
2.63093e-22
-8.70095e-20
2.63453e-22
-8.72734e-20
2.63892e-22
-8.75377e-20
2.64252e-22
-8.78023e-20
2.64691e-22
-8.80674e-20
2.65051e-22
-8.83329e-20
2.6549e-22
-8.85987e-20
2.65849e-22
-8.8865e-20
2.66289e-22
-8.91317e-20
2.66648e-22
-8.93987e-20
2.67088e-22
-8.96662e-20
2.67447e-22
-8.9934e-20
2.67887e-22
-9.02023e-20
2.68246e-22
-9.0471e-20
2.68686e-22
-9.074e-20
2.69045e-22
-9.10095e-20
2.69486e-22
-9.12793e-20
2.69844e-22
-9.15496e-20
2.70285e-22
-9.18203e-20
2.70643e-22
-9.20913e-20
2.71084e-22
-9.23628e-20
2.71442e-22
-9.26346e-20
2.71883e-22
-9.29069e-20
2.72241e-22
-9.31795e-20
2.72682e-22
-9.34526e-20
2.73039e-22
-9.3726e-20
2.73481e-22
-9.39999e-20
2.73838e-22
-9.42742e-20
2.7428e-22
-9.45488e-20
2.74637e-22
-9.48239e-20
2.75079e-22
-9.50993e-20
2.75436e-22
-9.53752e-20
2.75879e-22
-9.56514e-20
2.76235e-22
-9.59281e-20
2.76678e-22
-9.62051e-20
2.77034e-22
-9.64826e-20
2.77477e-22
-9.67604e-20
2.77833e-22
-9.70387e-20
2.78276e-22
-9.73173e-20
2.78632e-22
-9.75964e-20
2.79075e-22
-9.78758e-20
2.79431e-22
-9.81556e-20
2.79874e-22
-9.84359e-20
2.80229e-22
-9.87165e-20
2.80673e-22
-9.89976e-20
2.81028e-22
-9.9279e-20
2.81472e-22
-9.95609e-20
2.81827e-22
-9.98431e-20
2.82272e-22
-1.00126e-19
2.82626e-22
-1.00409e-19
2.83071e-22
-1.00692e-19
2.83425e-22
-1.00976e-19
2.8387e-22
-1.0126e-19
2.84224e-22
-1.01545e-19
2.84669e-22
-1.0183e-19
2.85023e-22
-1.02115e-19
2.85468e-22
-1.02401e-19
2.85822e-22
-1.02688e-19
2.86267e-22
-1.02974e-19
2.8662e-22
-1.03261e-19
2.87066e-22
-1.03549e-19
2.87419e-22
-1.03836e-19
2.87865e-22
-1.04125e-19
2.88218e-22
-1.04413e-19
2.88665e-22
-1.04702e-19
2.89017e-22
-1.04992e-19
2.89464e-22
-1.05282e-19
2.89816e-22
-1.05572e-19
2.90263e-22
-1.05863e-19
2.90615e-22
-1.06154e-19
2.91062e-22
-1.06445e-19
2.91414e-22
-1.06737e-19
2.91861e-22
-1.07029e-19
2.92213e-22
-1.07322e-19
2.9266e-22
-1.07615e-19
2.93012e-22
-1.07908e-19
2.93459e-22
-1.08202e-19
2.9381e-22
-1.08496e-19
2.94259e-22
-1.08791e-19
2.94609e-22
-1.09086e-19
2.95058e-22
-1.09381e-19
2.95408e-22
-1.09677e-19
2.95857e-22
-1.09973e-19
2.96207e-22
-1.1027e-19
2.96656e-22
-1.10567e-19
2.97006e-22
-1.10864e-19
2.97455e-22
-1.11162e-19
2.97805e-22
-1.1146e-19
2.98254e-22
-1.11759e-19
2.98604e-22
-1.12058e-19
2.99053e-22
-1.12358e-19
2.99403e-22
-1.12657e-19
2.99852e-22
-1.12958e-19
3.00201e-22
-1.13258e-19
3.00652e-22
-1.13559e-19
3.01e-22
-1.13861e-19
3.01451e-22
-1.14162e-19
3.01799e-22
-1.14465e-19
3.0225e-22
-1.14767e-19
3.02598e-22
-1.1507e-19
3.03049e-22
-1.15374e-19
3.03397e-22
-1.15677e-19
3.03848e-22
-1.15982e-19
3.04196e-22
-1.16286e-19
3.04647e-22
-1.16591e-19
3.04995e-22
-1.16897e-19
3.05446e-22
-1.17203e-19
3.05794e-22
-1.17509e-19
3.06246e-22
-1.17815e-19
3.06592e-22
-1.18122e-19
3.07045e-22
-1.1843e-19
3.07391e-22
-1.18738e-19
3.07844e-22
-1.19046e-19
3.0819e-22
-1.19354e-19
3.08643e-22
-1.19663e-19
3.08989e-22
-1.19973e-19
3.09442e-22
-1.20283e-19
3.09788e-22
-1.20593e-19
3.10241e-22
-1.20903e-19
3.10587e-22
-1.21214e-19
3.1104e-22
-1.21526e-19
3.11386e-22
-1.21838e-19
3.1184e-22
-1.2215e-19
3.12185e-22
-1.22463e-19
3.12639e-22
-1.22776e-19
3.12983e-22
-1.23089e-19
3.13438e-22
-1.23403e-19
3.13782e-22
-1.23717e-19
3.14237e-22
-1.24032e-19
3.14581e-22
-1.24347e-19
3.15036e-22
-1.24662e-19
3.1538e-22
-1.24978e-19
3.15835e-22
-1.25294e-19
3.16179e-22
-1.25611e-19
3.16634e-22
-1.25928e-19
3.16978e-22
-1.26245e-19
3.17433e-22
-1.26563e-19
3.17777e-22
-1.26881e-19
3.18233e-22
-1.272e-19
3.18576e-22
-1.27519e-19
3.19032e-22
-1.27838e-19
3.19374e-22
-1.28158e-19
3.19831e-22
-1.28478e-19
3.20173e-22
-1.28799e-19
3.2063e-22
-1.2912e-19
3.20972e-22
-1.29441e-19
3.21429e-22
-1.29763e-19
3.21771e-22
-1.30085e-19
3.22228e-22
-1.30407e-19
3.2257e-22
-1.3073e-19
3.23027e-22
-1.31054e-19
3.23369e-22
-1.31378e-19
3.23827e-22
-1.31702e-19
3.24168e-22
-1.32026e-19
3.24626e-22
-1.32351e-19
3.24966e-22
-1.32677e-19
3.25425e-22
-1.33003e-19
3.25765e-22
-1.33329e-19
3.26224e-22
-1.33655e-19
3.26564e-22
-1.33982e-19
3.27023e-22
-1.3431e-19
3.27363e-22
-1.34638e-19
3.27822e-22
-1.34966e-19
3.28162e-22
-1.35294e-19
3.28622e-22
-1.35623e-19
3.28961e-22
-1.35953e-19
3.29421e-22
-1.36282e-19
3.2976e-22
-1.36613e-19
3.3022e-22
-1.36943e-19
3.30559e-22
-1.37274e-19
3.31019e-22
-1.37606e-19
3.31357e-22
-1.37937e-19
3.31818e-22
-1.3827e-19
3.32156e-22
-1.38602e-19
3.32617e-22
-1.38935e-19
3.32955e-22
-1.39268e-19
3.33416e-22
-1.39602e-19
3.33754e-22
-1.39936e-19
3.34216e-22
-1.40271e-19
3.34553e-22
-1.40606e-19
3.35015e-22
-1.40941e-19
3.35352e-22
-1.41277e-19
3.35814e-22
-1.41613e-19
3.36151e-22
-1.4195e-19
3.36613e-22
-1.42287e-19
3.36949e-22
-1.42624e-19
3.37412e-22
-1.42962e-19
3.37748e-22
-1.433e-19
3.38211e-22
-1.43639e-19
3.38547e-22
-1.43978e-19
3.3901e-22
-1.44317e-19
3.39346e-22
-1.44657e-19
3.3981e-22
-1.44997e-19
3.40145e-22
-1.45338e-19
3.40609e-22
-1.45679e-19
3.40944e-22
-1.4602e-19
3.41408e-22
-1.46362e-19
3.41743e-22
-1.46704e-19
3.42207e-22
-1.47046e-19
3.42541e-22
-1.47389e-19
3.43006e-22
-1.47733e-19
3.4334e-22
-1.48077e-19
3.43805e-22
-1.48421e-19
3.44139e-22
-1.48765e-19
3.44605e-22
-1.4911e-19
3.44938e-22
-1.49456e-19
3.45404e-22
-1.49801e-19
3.45737e-22
-1.50148e-19
3.46203e-22
-1.50494e-19
3.46536e-22
-1.50841e-19
3.47002e-22
-1.51188e-19
3.47335e-22
-1.51536e-19
3.47801e-22
-1.51884e-19
3.48133e-22
-1.52233e-19
3.486e-22
-1.52582e-19
3.48932e-22
-1.52931e-19
3.49399e-22
-1.53281e-19
3.49731e-22
-1.53631e-19
3.50199e-22
-1.53982e-19
3.5053e-22
-1.54333e-19
3.50998e-22
-1.54684e-19
3.51329e-22
-1.55036e-19
3.51797e-22
-1.55388e-19
3.52128e-22
-1.5574e-19
3.52596e-22
-1.56093e-19
3.52927e-22
-1.56447e-19
3.53395e-22
-1.56801e-19
3.53725e-22
-1.57155e-19
3.54194e-22
-1.57509e-19
3.54524e-22
-1.57864e-19
3.54994e-22
-1.5822e-19
3.55323e-22
-1.58575e-19
3.55793e-22
-1.58931e-19
3.56122e-22
-1.59288e-19
3.56592e-22
-1.59645e-19
3.56921e-22
-1.60002e-19
3.57391e-22
-1.6036e-19
3.5772e-22
-1.60718e-19
3.5819e-22
-1.61077e-19
3.58519e-22
-1.61436e-19
3.58989e-22
-1.61795e-19
3.59317e-22
-1.62155e-19
3.59788e-22
-1.62515e-19
3.60116e-22
-1.62875e-19
3.60588e-22
-1.63236e-19
3.60915e-22
-1.63598e-19
3.61387e-22
-1.63959e-19
3.61714e-22
-1.64322e-19
3.62186e-22
-1.64684e-19
3.62513e-22
-1.65047e-19
3.62985e-22
-1.6541e-19
3.63312e-22
-1.65774e-19
3.63784e-22
-1.66138e-19
3.64111e-22
-1.66503e-19
3.64583e-22
-1.66868e-19
3.64909e-22
-1.67233e-19
3.65383e-22
-1.67599e-19
3.65708e-22
-1.67965e-19
3.66182e-22
-1.68332e-19
3.66507e-22
-1.68698e-19
3.66981e-22
-1.69066e-19
3.67306e-22
-1.69434e-19
3.6778e-22
-1.69802e-19
3.68105e-22
-1.7017e-19
3.68579e-22
-1.70539e-19
3.68904e-22
-1.70908e-19
3.69378e-22
-1.71278e-19
3.69703e-22
-1.71648e-19
3.70178e-22
-1.72019e-19
3.70501e-22
-1.7239e-19
3.70977e-22
-1.72761e-19
3.713e-22
-1.73133e-19
3.71776e-22
-1.73505e-19
3.72099e-22
-1.73878e-19
3.72575e-22
-1.7425e-19
3.72898e-22
-1.74624e-19
3.73374e-22
-1.74998e-19
3.73697e-22
-1.75372e-19
3.74173e-22
-1.75746e-19
3.74496e-22
-1.76121e-19
3.74973e-22
-1.76496e-19
3.75294e-22
-1.76872e-19
3.75772e-22
-1.77248e-19
3.76093e-22
-1.77625e-19
3.76571e-22
-1.78002e-19
3.76892e-22
-1.78379e-19
3.7737e-22
-1.78757e-19
3.77691e-22
-1.79135e-19
3.78169e-22
-1.79513e-19
3.7849e-22
-1.79892e-19
3.78968e-22
-1.80272e-19
3.79289e-22
-1.80651e-19
3.79768e-22
-1.81031e-19
3.80088e-22
-1.81412e-19
3.80567e-22
-1.81793e-19
3.80886e-22
-1.82174e-19
3.81366e-22
-1.82556e-19
3.81685e-22
-1.82938e-19
3.82165e-22
-1.83321e-19
3.82484e-22
-1.83703e-19
3.82964e-22
-1.84087e-19
3.83283e-22
-1.84471e-19
3.83763e-22
-1.84855e-19
3.84082e-22
-1.85239e-19
3.84563e-22
-1.85624e-19
3.84881e-22
-1.86009e-19
3.85362e-22
-1.86395e-19
3.85679e-22
-1.86781e-19
3.86161e-22
-1.87168e-19
3.86478e-22
-1.87555e-19
3.8696e-22
-1.87942e-19
3.87277e-22
-1.8833e-19
3.87759e-22
-1.88718e-19
3.88076e-22
-1.89106e-19
3.88558e-22
-1.89495e-19
3.88875e-22
-1.89884e-19
3.89358e-22
-1.90274e-19
3.89674e-22
-1.90664e-19
3.90157e-22
-1.91055e-19
3.90472e-22
-1.91446e-19
3.90956e-22
-1.91837e-19
3.91271e-22
-1.92229e-19
3.91755e-22
-1.92621e-19
3.9207e-22
-1.93013e-19
3.92554e-22
-1.93406e-19
3.92869e-22
-1.938e-19
3.93353e-22
-1.94193e-19
3.93668e-22
-1.94587e-19
3.94153e-22
-1.94982e-19
3.94467e-22
-1.95377e-19
3.94952e-22
-1.95772e-19
3.95265e-22
-1.96168e-19
3.95751e-22
-1.96564e-19
3.96064e-22
-1.9696e-19
3.9655e-22
-1.97357e-19
3.96863e-22
-1.97755e-19
3.97349e-22
-1.98152e-19
3.97662e-22
-1.9855e-19
3.98149e-22
-1.98949e-19
3.98461e-22
-1.99348e-19
3.98948e-22
-1.99747e-19
3.9926e-22
-2.00147e-19
3.99747e-22
-2.00547e-19
4.00059e-22
-2.00947e-19
4.00546e-22
-2.01348e-19
4.00857e-22
-2.01749e-19
4.01345e-22
-2.02151e-19
4.01656e-22
-2.02553e-19
4.02144e-22
-2.02956e-19
4.02455e-22
-2.03359e-19
4.02944e-22
-2.03762e-19
4.03254e-22
-2.04166e-19
4.03743e-22
-2.0457e-19
4.04053e-22
-2.04974e-19
4.04542e-22
-2.05379e-19
4.04852e-22
-2.05784e-19
4.05341e-22
-2.0619e-19
4.0565e-22
-2.06596e-19
4.0614e-22
-2.07003e-19
4.06449e-22
-2.0741e-19
4.0694e-22
-2.07817e-19
4.07248e-22
-2.08224e-19
4.07739e-22
-2.08633e-19
4.08047e-22
-2.09041e-19
4.08538e-22
-2.0945e-19
4.08846e-22
-2.09859e-19
4.09337e-22
-2.10269e-19
4.09645e-22
-2.10679e-19
4.10136e-22
-2.11089e-19
4.10443e-22
-2.115e-19
4.10935e-22
-2.11912e-19
4.11242e-22
-2.12323e-19
4.11735e-22
-2.12735e-19
4.12041e-22
-2.13148e-19
4.12534e-22
-2.13561e-19
4.1284e-22
-2.13974e-19
4.13333e-22
-2.14388e-19
4.13639e-22
-2.14802e-19
4.14132e-22
-2.15216e-19
4.14437e-22
-2.15631e-19
4.14931e-22
-2.16046e-19
4.15236e-22
-2.16462e-19
4.1573e-22
-2.16878e-19
4.16035e-22
-2.17295e-19
4.1653e-22
-2.17712e-19
4.16834e-22
-2.18129e-19
4.17329e-22
-2.18546e-19
4.17633e-22
-2.18964e-19
4.18128e-22
-2.19383e-19
4.18432e-22
-2.19802e-19
4.18927e-22
-2.20221e-19
4.1923e-22
-2.20641e-19
4.19726e-22
-2.21061e-19
4.20029e-22
-2.21481e-19
4.20526e-22
-2.21902e-19
4.20828e-22
-2.22323e-19
4.21325e-22
-2.22745e-19
4.21627e-22
-2.23167e-19
4.22124e-22
-2.2359e-19
4.22426e-22
-2.24013e-19
4.22923e-22
-2.24436e-19
4.23225e-22
-2.24859e-19
4.23722e-22
-2.25284e-19
4.24023e-22
-2.25708e-19
4.24522e-22
-2.26133e-19
4.24822e-22
-2.26558e-19
4.25321e-22
-2.26984e-19
4.25621e-22
-2.2741e-19
4.2612e-22
-2.27836e-19
4.2642e-22
-2.28263e-19
4.26919e-22
-2.2869e-19
4.27219e-22
-2.29118e-19
4.27718e-22
-2.29546e-19
4.28018e-22
-2.29975e-19
4.28517e-22
-2.30403e-19
4.28816e-22
-2.30833e-19
4.29317e-22
-2.31262e-19
4.29615e-22
-2.31692e-19
4.30116e-22
-2.32123e-19
4.30414e-22
-2.32554e-19
4.30915e-22
-2.32985e-19
4.31213e-22
-2.33417e-19
4.31714e-22
-2.33849e-19
4.32012e-22
-2.34281e-19
4.32513e-22
-2.34714e-19
4.3281e-22
-2.35147e-19
4.33313e-22
-2.35581e-19
4.33609e-22
-2.36015e-19
4.34112e-22
-2.36449e-19
4.34408e-22
-2.36884e-19
4.34911e-22
-2.3732e-19
4.35207e-22
-2.37755e-19
4.3571e-22
-2.38191e-19
4.36006e-22
-2.38628e-19
4.36509e-22
-2.39065e-19
4.36805e-22
-2.39502e-19
4.37309e-22
-2.39939e-19
4.37603e-22
-2.40377e-19
4.38108e-22
-2.40816e-19
4.38402e-22
-2.41255e-19
4.38907e-22
-2.41694e-19
4.39201e-22
-2.42134e-19
4.39706e-22
-2.42574e-19
4.4e-22
-2.43014e-19
4.40505e-22
-2.43455e-19
4.40799e-22
-2.43896e-19
4.41305e-22
-2.44338e-19
4.41597e-22
-2.4478e-19
4.42104e-22
-2.45222e-19
4.42396e-22
-2.45665e-19
4.42903e-22
-2.46108e-19
4.43195e-22
-2.46552e-19
4.43702e-22
-2.46996e-19
4.43994e-22
-2.4744e-19
4.44501e-22
-2.47885e-19
4.44793e-22
-2.48331e-19
4.45301e-22
-2.48776e-19
4.45592e-22
-2.49222e-19
4.461e-22
-2.49669e-19
4.4639e-22
-2.50116e-19
4.46899e-22
-2.50563e-19
4.47189e-22
-2.5101e-19
4.47698e-22
-2.51458e-19
4.47988e-22
-2.51907e-19
4.48497e-22
-2.52356e-19
4.48787e-22
-2.52805e-19
4.49297e-22
-2.53255e-19
4.49586e-22
-2.53705e-19
4.50096e-22
-2.54155e-19
4.50384e-22
-2.54606e-19
4.50895e-22
-2.55057e-19
4.51183e-22
-2.55509e-19
4.51694e-22
-2.55961e-19
4.51982e-22
-2.56413e-19
4.52493e-22
-2.56866e-19
4.52781e-22
-2.57319e-19
4.53292e-22
-2.57773e-19
4.5358e-22
-2.58227e-19
4.54092e-22
-2.58681e-19
4.54379e-22
-2.59136e-19
4.54891e-22
-2.59591e-19
4.55177e-22
-2.60047e-19
4.5569e-22
-2.60503e-19
4.55976e-22
-2.60959e-19
4.56489e-22
-2.61416e-19
4.56775e-22
-2.61873e-19
4.57288e-22
-2.62331e-19
4.57574e-22
-2.62789e-19
4.58088e-22
-2.63248e-19
4.58373e-22
-2.63706e-19
4.58887e-22
-2.64166e-19
4.59171e-22
-2.64625e-19
4.59686e-22
-2.65085e-19
4.5997e-22
-2.65546e-19
4.60485e-22
-2.66006e-19
4.60769e-22
-2.66468e-19
4.61284e-22
-2.66929e-19
4.61568e-22
-2.67391e-19
4.62084e-22
-2.67854e-19
4.62367e-22
-2.68316e-19
4.62883e-22
-2.6878e-19
4.63165e-22
-2.69243e-19
4.63682e-22
-2.69707e-19
4.63964e-22
-2.70172e-19
4.64481e-22
-2.70637e-19
4.64763e-22
-2.71102e-19
4.65281e-22
-2.71567e-19
4.65562e-22
-2.72033e-19
4.6608e-22
-2.725e-19
4.66361e-22
-2.72967e-19
4.66879e-22
-2.73434e-19
4.6716e-22
-2.73901e-19
4.67678e-22
-2.74369e-19
4.67958e-22
-2.74838e-19
4.68477e-22