/*--------------------------------*- C++ -*----------------------------------*\
| =========                 |                                                 |
| \\      /  F ield         | OpenFOAM: The Open Source CFD Toolbox           |
|  \\    /   O peration     | Version:  2206                                  |
|   \\  /    A nd           | Website:  www.openfoam.com                      |
|    \\/     M anipulation  |                                                 |
\*---------------------------------------------------------------------------*/
FoamFile
{
    version     2.0;
    format      ascii;
    arch        "LSB;label=32;scalar=64";
    class       volVectorField;
    location    "60";
    object      U;
}
// * * * * * * * * * * * * * * * * * * * * * * * * * * * * * * * * * * * * * //

dimensions      [0 1 -1 0 0 0 0];

internalField   nonuniform List<vector> 
50000
(
(-4.88671e-12 2.40312e-06 5.98164e-12)
(-3.71533e-12 6.23298e-06 4.36046e-13)
(-6.66794e-12 1.01401e-05 -2.20474e-14)
(-8.72161e-12 1.41028e-05 7.11575e-14)
(-1.00565e-11 1.80836e-05 1.12491e-15)
(-1.08726e-11 2.20723e-05 1.30893e-13)
(-1.27408e-11 2.60651e-05 3.15979e-14)
(-1.45863e-11 3.00604e-05 7.61708e-14)
(-1.58465e-11 3.40574e-05 6.02322e-14)
(-1.7758e-11 3.80554e-05 7.6436e-14)
(-1.93084e-11 4.20542e-05 5.8417e-14)
(-2.11781e-11 4.60536e-05 7.06359e-14)
(-2.2755e-11 5.00535e-05 6.19538e-14)
(-2.46131e-11 5.40537e-05 6.90806e-14)
(-2.62561e-11 5.80541e-05 6.40823e-14)
(-2.80876e-11 6.20548e-05 6.79536e-14)
(-2.97984e-11 6.60557e-05 6.34274e-14)
(-3.15944e-11 7.00567e-05 6.78139e-14)
(-3.33296e-11 7.40578e-05 6.43682e-14)
(-3.51244e-11 7.8059e-05 6.70945e-14)
(-3.68794e-11 8.20604e-05 6.43639e-14)
(-3.86647e-11 8.60618e-05 6.70714e-14)
(-4.04289e-11 9.00632e-05 6.45743e-14)
(-4.22192e-11 9.40648e-05 6.66327e-14)
(-4.39836e-11 9.80664e-05 6.49294e-14)
(-4.57767e-11 0.000102068 6.63173e-14)
(-4.75452e-11 0.00010607 6.51042e-14)
(-4.93371e-11 0.000110071 6.61518e-14)
(-5.11105e-11 0.000114073 6.51954e-14)
(-5.2901e-11 0.000118075 6.60373e-14)
(-5.4678e-11 0.000122077 6.52624e-14)
(-5.64676e-11 0.000126078 6.5945e-14)
(-5.82472e-11 0.00013008 6.5316e-14)
(-6.00364e-11 0.000134082 6.58696e-14)
(-6.18179e-11 0.000138084 6.53586e-14)
(-6.36068e-11 0.000142086 6.58083e-14)
(-6.53898e-11 0.000146088 6.53921e-14)
(-6.71786e-11 0.00015009 6.57585e-14)
(-6.89626e-11 0.000154092 6.54184e-14)
(-7.07514e-11 0.000158094 6.57179e-14)
(-7.25363e-11 0.000162096 6.54391e-14)
(-7.43251e-11 0.000166097 6.56845e-14)
(-7.61107e-11 0.000170099 6.54554e-14)
(-7.78994e-11 0.000174101 6.5657e-14)
(-7.96856e-11 0.000178103 6.54682e-14)
(-8.14744e-11 0.000182105 6.56342e-14)
(-8.3261e-11 0.000186107 6.54783e-14)
(-8.50498e-11 0.000190109 6.56152e-14)
(-8.68368e-11 0.000194111 6.54864e-14)
(-8.86256e-11 0.000198113 6.55992e-14)
(-9.0413e-11 0.000202115 6.54928e-14)
(-9.22018e-11 0.000206118 6.55858e-14)
(-9.39894e-11 0.00021012 6.54978e-14)
(-9.57783e-11 0.000214122 6.55743e-14)
(-9.75661e-11 0.000218124 6.55019e-14)
(-9.93551e-11 0.000222126 6.55646e-14)
(-1.01143e-10 0.000226128 6.55051e-14)
(-1.02932e-10 0.00023013 6.55563e-14)
(-1.0472e-10 0.000234132 6.55076e-14)
(-1.06509e-10 0.000238134 6.55492e-14)
(-1.08297e-10 0.000242136 6.55096e-14)
(-1.10086e-10 0.000246138 6.55431e-14)
(-1.11875e-10 0.00025014 6.55112e-14)
(-1.13664e-10 0.000254142 6.55377e-14)
(-1.15452e-10 0.000258144 6.55124e-14)
(-1.17242e-10 0.000262146 6.55332e-14)
(-1.1903e-10 0.000266148 6.55134e-14)
(-1.20819e-10 0.000270151 6.55292e-14)
(-1.22608e-10 0.000274153 6.55141e-14)
(-1.24397e-10 0.000278155 6.55257e-14)
(-1.26186e-10 0.000282157 6.55146e-14)
(-1.27975e-10 0.000286159 6.55226e-14)
(-1.29764e-10 0.000290161 6.5515e-14)
(-1.31553e-10 0.000294163 6.552e-14)
(-1.33342e-10 0.000298165 6.55153e-14)
(-1.35131e-10 0.000302167 6.55176e-14)
(-1.3692e-10 0.000306169 6.55154e-14)
(-1.38709e-10 0.000310171 6.55156e-14)
(-1.40498e-10 0.000314174 6.55155e-14)
(-1.42287e-10 0.000318176 6.55138e-14)
(-1.44076e-10 0.000322178 6.55155e-14)
(-1.45866e-10 0.00032618 6.55122e-14)
(-1.47655e-10 0.000330182 6.55155e-14)
(-1.49444e-10 0.000334184 6.55108e-14)
(-1.51233e-10 0.000338186 6.55154e-14)
(-1.53022e-10 0.000342188 6.55096e-14)
(-1.54811e-10 0.00034619 6.55153e-14)
(-1.566e-10 0.000350193 6.55085e-14)
(-1.5839e-10 0.000354195 6.55151e-14)
(-1.60179e-10 0.000358197 6.55075e-14)
(-1.61968e-10 0.000362199 6.55149e-14)
(-1.63757e-10 0.000366201 6.55066e-14)
(-1.65546e-10 0.000370203 6.55147e-14)
(-1.67336e-10 0.000374205 6.55059e-14)
(-1.69125e-10 0.000378207 6.55146e-14)
(-1.70914e-10 0.00038221 6.55052e-14)
(-1.72703e-10 0.000386212 6.55143e-14)
(-1.74493e-10 0.000390214 6.55046e-14)
(-1.76282e-10 0.000394216 6.55141e-14)
(-1.78071e-10 0.000398218 6.5504e-14)
(-1.79861e-10 0.00040222 6.55139e-14)
(-1.8165e-10 0.000406222 6.55035e-14)
(-1.83439e-10 0.000410224 6.55137e-14)
(-1.85228e-10 0.000414227 6.55031e-14)
(-1.87018e-10 0.000418229 6.55135e-14)
(-1.88807e-10 0.000422231 6.55027e-14)
(-1.90596e-10 0.000426233 6.55133e-14)
(-1.92386e-10 0.000430235 6.55024e-14)
(-1.94175e-10 0.000434237 6.55131e-14)
(-1.95964e-10 0.000438239 6.5502e-14)
(-1.97754e-10 0.000442241 6.55129e-14)
(-1.99543e-10 0.000446244 6.55018e-14)
(-2.01332e-10 0.000450246 6.55127e-14)
(-2.03122e-10 0.000454248 6.55015e-14)
(-2.04911e-10 0.00045825 6.55125e-14)
(-2.067e-10 0.000462252 6.55013e-14)
(-2.0849e-10 0.000466254 6.55123e-14)
(-2.10279e-10 0.000470256 6.55011e-14)
(-2.12068e-10 0.000474258 6.55121e-14)
(-2.13858e-10 0.000478261 6.55009e-14)
(-2.15647e-10 0.000482263 6.55119e-14)
(-2.17437e-10 0.000486265 6.55007e-14)
(-2.19226e-10 0.000490267 6.55118e-14)
(-2.21015e-10 0.000494269 6.55006e-14)
(-2.22805e-10 0.000498271 6.55116e-14)
(-2.24594e-10 0.000502273 6.55004e-14)
(-2.26383e-10 0.000506276 6.55114e-14)
(-2.28173e-10 0.000510278 6.55003e-14)
(-2.29962e-10 0.00051428 6.55113e-14)
(-2.31752e-10 0.000518282 6.55002e-14)
(-2.33541e-10 0.000522284 6.55111e-14)
(-2.3533e-10 0.000526286 6.55001e-14)
(-2.3712e-10 0.000530288 6.5511e-14)
(-2.38909e-10 0.000534291 6.55e-14)
(-2.40698e-10 0.000538293 6.55108e-14)
(-2.42488e-10 0.000542295 6.54999e-14)
(-2.44277e-10 0.000546297 6.55107e-14)
(-2.46067e-10 0.000550299 6.54998e-14)
(-2.47856e-10 0.000554301 6.55106e-14)
(-2.49645e-10 0.000558303 6.54998e-14)
(-2.51435e-10 0.000562306 6.55105e-14)
(-2.53224e-10 0.000566308 6.54997e-14)
(-2.55014e-10 0.00057031 6.55103e-14)
(-2.56803e-10 0.000574312 6.54996e-14)
(-2.58593e-10 0.000578314 6.55102e-14)
(-2.60382e-10 0.000582316 6.54996e-14)
(-2.62171e-10 0.000586318 6.55101e-14)
(-2.63961e-10 0.000590321 6.54995e-14)
(-2.6575e-10 0.000594323 6.551e-14)
(-2.6754e-10 0.000598325 6.54995e-14)
(-2.69329e-10 0.000602327 6.55099e-14)
(-2.71118e-10 0.000606329 6.54994e-14)
(-2.72908e-10 0.000610331 6.55098e-14)
(-2.74697e-10 0.000614333 6.54994e-14)
(-2.76487e-10 0.000618336 6.55097e-14)
(-2.78276e-10 0.000622338 6.54994e-14)
(-2.80066e-10 0.00062634 6.55096e-14)
(-2.81855e-10 0.000630342 6.54993e-14)
(-2.83644e-10 0.000634344 6.55095e-14)
(-2.85434e-10 0.000638346 6.54993e-14)
(-2.87223e-10 0.000642348 6.55094e-14)
(-2.89013e-10 0.000646351 6.54993e-14)
(-2.90802e-10 0.000650353 6.55093e-14)
(-2.92592e-10 0.000654355 6.54993e-14)
(-2.94381e-10 0.000658357 6.55092e-14)
(-2.9617e-10 0.000662359 6.54993e-14)
(-2.9796e-10 0.000666361 6.55092e-14)
(-2.99749e-10 0.000670363 6.54992e-14)
(-3.01539e-10 0.000674366 6.55091e-14)
(-3.03328e-10 0.000678368 6.54992e-14)
(-3.05118e-10 0.00068237 6.5509e-14)
(-3.06907e-10 0.000686372 6.54992e-14)
(-3.08696e-10 0.000690374 6.5509e-14)
(-3.10486e-10 0.000694376 6.54992e-14)
(-3.12275e-10 0.000698378 6.55089e-14)
(-3.14065e-10 0.000702381 6.54992e-14)
(-3.15854e-10 0.000706383 6.55088e-14)
(-3.17644e-10 0.000710385 6.54992e-14)
(-3.19433e-10 0.000714387 6.55088e-14)
(-3.21223e-10 0.000718389 6.54992e-14)
(-3.23012e-10 0.000722391 6.55087e-14)
(-3.24802e-10 0.000726393 6.54991e-14)
(-3.26591e-10 0.000730396 6.55086e-14)
(-3.2838e-10 0.000734398 6.54991e-14)
(-3.3017e-10 0.0007384 6.55086e-14)
(-3.31959e-10 0.000742402 6.54991e-14)
(-3.33749e-10 0.000746404 6.55085e-14)
(-3.35538e-10 0.000750406 6.54991e-14)
(-3.37328e-10 0.000754409 6.55085e-14)
(-3.39117e-10 0.000758411 6.54991e-14)
(-3.40907e-10 0.000762413 6.55084e-14)
(-3.42696e-10 0.000766415 6.54991e-14)
(-3.44485e-10 0.000770417 6.55084e-14)
(-3.46275e-10 0.000774419 6.54991e-14)
(-3.48064e-10 0.000778421 6.55083e-14)
(-3.49854e-10 0.000782424 6.54991e-14)
(-3.51643e-10 0.000786426 6.55083e-14)
(-3.53433e-10 0.000790428 6.54991e-14)
(-3.55222e-10 0.00079443 6.55083e-14)
(-3.57012e-10 0.000798432 6.54991e-14)
(-3.58801e-10 0.000802434 6.55082e-14)
(-3.60591e-10 0.000806436 6.54991e-14)
(-3.6238e-10 0.000810439 6.55082e-14)
(-3.64169e-10 0.000814441 6.5499e-14)
(-3.65959e-10 0.000818443 6.55081e-14)
(-3.67748e-10 0.000822445 6.5499e-14)
(-3.69538e-10 0.000826447 6.55081e-14)
(-3.71327e-10 0.000830449 6.5499e-14)
(-3.73117e-10 0.000834452 6.55081e-14)
(-3.74906e-10 0.000838454 6.5499e-14)
(-3.76696e-10 0.000842456 6.5508e-14)
(-3.78485e-10 0.000846458 6.5499e-14)
(-3.80275e-10 0.00085046 6.5508e-14)
(-3.82064e-10 0.000854462 6.5499e-14)
(-3.83854e-10 0.000858464 6.5508e-14)
(-3.85643e-10 0.000862467 6.5499e-14)
(-3.87433e-10 0.000866469 6.55079e-14)
(-3.89222e-10 0.000870471 6.5499e-14)
(-3.91011e-10 0.000874473 6.55079e-14)
(-3.92801e-10 0.000878475 6.5499e-14)
(-3.9459e-10 0.000882477 6.55079e-14)
(-3.9638e-10 0.00088648 6.5499e-14)
(-3.98169e-10 0.000890482 6.55079e-14)
(-3.99959e-10 0.000894484 6.5499e-14)
(-4.01748e-10 0.000898486 6.55078e-14)
(-4.03538e-10 0.000902488 6.5499e-14)
(-4.05327e-10 0.00090649 6.55078e-14)
(-4.07117e-10 0.000910492 6.5499e-14)
(-4.08906e-10 0.000914495 6.55078e-14)
(-4.10696e-10 0.000918497 6.5499e-14)
(-4.12485e-10 0.000922499 6.55078e-14)
(-4.14275e-10 0.000926501 6.54989e-14)
(-4.16064e-10 0.000930503 6.55078e-14)
(-4.17853e-10 0.000934505 6.54989e-14)
(-4.19643e-10 0.000938507 6.55077e-14)
(-4.21432e-10 0.00094251 6.54989e-14)
(-4.23222e-10 0.000946512 6.55077e-14)
(-4.25011e-10 0.000950514 6.54989e-14)
(-4.26801e-10 0.000954516 6.55077e-14)
(-4.2859e-10 0.000958518 6.54989e-14)
(-4.3038e-10 0.00096252 6.55077e-14)
(-4.32169e-10 0.000966523 6.54989e-14)
(-4.33959e-10 0.000970525 6.55077e-14)
(-4.35748e-10 0.000974527 6.54989e-14)
(-4.37538e-10 0.000978529 6.55077e-14)
(-4.39327e-10 0.000982531 6.54989e-14)
(-4.41117e-10 0.000986533 6.55076e-14)
(-4.42906e-10 0.000990535 6.54989e-14)
(-4.44696e-10 0.000994538 6.55076e-14)
(-4.46485e-10 0.00099854 6.54989e-14)
(-4.48274e-10 0.00100254 6.55076e-14)
(-4.50064e-10 0.00100654 6.54989e-14)
(-4.51853e-10 0.00101055 6.55076e-14)
(-4.53643e-10 0.00101455 6.54989e-14)
(-4.55432e-10 0.00101855 6.55076e-14)
(-4.57222e-10 0.00102255 6.54988e-14)
(-4.59011e-10 0.00102655 6.55076e-14)
(-4.60801e-10 0.00103056 6.54988e-14)
(-4.6259e-10 0.00103456 6.55076e-14)
(-4.6438e-10 0.00103856 6.54988e-14)
(-4.66169e-10 0.00104256 6.55076e-14)
(-4.67959e-10 0.00104657 6.54988e-14)
(-4.69748e-10 0.00105057 6.55076e-14)
(-4.71538e-10 0.00105457 6.54988e-14)
(-4.73327e-10 0.00105857 6.55076e-14)
(-4.75117e-10 0.00106257 6.54988e-14)
(-4.76906e-10 0.00106658 6.55076e-14)
(-4.78696e-10 0.00107058 6.54988e-14)
(-4.80485e-10 0.00107458 6.55075e-14)
(-4.82275e-10 0.00107858 6.54988e-14)
(-4.84064e-10 0.00108259 6.55075e-14)
(-4.85854e-10 0.00108659 6.54988e-14)
(-4.87643e-10 0.00109059 6.55075e-14)
(-4.89432e-10 0.00109459 6.54988e-14)
(-4.91222e-10 0.00109859 6.55075e-14)
(-4.93011e-10 0.0011026 6.54987e-14)
(-4.94801e-10 0.0011066 6.55075e-14)
(-4.9659e-10 0.0011106 6.54987e-14)
(-4.9838e-10 0.0011146 6.55075e-14)
(-5.00169e-10 0.0011186 6.54987e-14)
(-5.01959e-10 0.00112261 6.55075e-14)
(-5.03748e-10 0.00112661 6.54987e-14)
(-5.05538e-10 0.00113061 6.55075e-14)
(-5.07327e-10 0.00113461 6.54987e-14)
(-5.09117e-10 0.00113862 6.55075e-14)
(-5.10906e-10 0.00114262 6.54987e-14)
(-5.12696e-10 0.00114662 6.55075e-14)
(-5.14485e-10 0.00115062 6.54987e-14)
(-5.16275e-10 0.00115462 6.55075e-14)
(-5.18064e-10 0.00115863 6.54987e-14)
(-5.19854e-10 0.00116263 6.55075e-14)
(-5.21643e-10 0.00116663 6.54986e-14)
(-5.23433e-10 0.00117063 6.55075e-14)
(-5.25222e-10 0.00117463 6.54986e-14)
(-5.27012e-10 0.00117864 6.55075e-14)
(-5.28801e-10 0.00118264 6.54986e-14)
(-5.30591e-10 0.00118664 6.55075e-14)
(-5.3238e-10 0.00119064 6.54986e-14)
(-5.34169e-10 0.00119465 6.55075e-14)
(-5.35959e-10 0.00119865 6.54986e-14)
(-5.37748e-10 0.00120265 6.55075e-14)
(-5.39538e-10 0.00120665 6.54986e-14)
(-5.41327e-10 0.00121065 6.55075e-14)
(-5.43117e-10 0.00121466 6.54986e-14)
(-5.44906e-10 0.00121866 6.55075e-14)
(-5.46696e-10 0.00122266 6.54986e-14)
(-5.48485e-10 0.00122666 6.55075e-14)
(-5.50275e-10 0.00123066 6.54986e-14)
(-5.52064e-10 0.00123467 6.55075e-14)
(-5.53854e-10 0.00123867 6.54985e-14)
(-5.55643e-10 0.00124267 6.55075e-14)
(-5.57433e-10 0.00124667 6.54985e-14)
(-5.59222e-10 0.00125068 6.55075e-14)
(-5.61012e-10 0.00125468 6.54985e-14)
(-5.62801e-10 0.00125868 6.55075e-14)
(-5.64591e-10 0.00126268 6.54985e-14)
(-5.6638e-10 0.00126668 6.55075e-14)
(-5.6817e-10 0.00127069 6.54985e-14)
(-5.69959e-10 0.00127469 6.55075e-14)
(-5.71749e-10 0.00127869 6.54985e-14)
(-5.73538e-10 0.00128269 6.55075e-14)
(-5.75328e-10 0.00128669 6.54985e-14)
(-5.77117e-10 0.0012907 6.55075e-14)
(-5.78907e-10 0.0012947 6.54984e-14)
(-5.80696e-10 0.0012987 6.55075e-14)
(-5.82486e-10 0.0013027 6.54984e-14)
(-5.84275e-10 0.00130671 6.55076e-14)
(-5.86065e-10 0.00131071 6.54984e-14)
(-5.87854e-10 0.00131471 6.55076e-14)
(-5.89644e-10 0.00131871 6.54984e-14)
(-5.91433e-10 0.00132271 6.55076e-14)
(-5.93222e-10 0.00132672 6.54984e-14)
(-5.95012e-10 0.00133072 6.55076e-14)
(-5.96801e-10 0.00133472 6.54984e-14)
(-5.98591e-10 0.00133872 6.55076e-14)
(-6.0038e-10 0.00134273 6.54984e-14)
(-6.0217e-10 0.00134673 6.55076e-14)
(-6.03959e-10 0.00135073 6.54983e-14)
(-6.05749e-10 0.00135473 6.55076e-14)
(-6.07538e-10 0.00135873 6.54983e-14)
(-6.09328e-10 0.00136274 6.55076e-14)
(-6.11117e-10 0.00136674 6.54983e-14)
(-6.12907e-10 0.00137074 6.55076e-14)
(-6.14696e-10 0.00137474 6.54983e-14)
(-6.16486e-10 0.00137874 6.55076e-14)
(-6.18275e-10 0.00138275 6.54983e-14)
(-6.20065e-10 0.00138675 6.55076e-14)
(-6.21854e-10 0.00139075 6.54983e-14)
(-6.23644e-10 0.00139475 6.55076e-14)
(-6.25433e-10 0.00139876 6.54983e-14)
(-6.27223e-10 0.00140276 6.55076e-14)
(-6.29012e-10 0.00140676 6.54983e-14)
(-6.30802e-10 0.00141076 6.55077e-14)
(-6.32591e-10 0.00141476 6.54982e-14)
(-6.34381e-10 0.00141877 6.55077e-14)
(-6.3617e-10 0.00142277 6.54982e-14)
(-6.3796e-10 0.00142677 6.55077e-14)
(-6.39749e-10 0.00143077 6.54982e-14)
(-6.41539e-10 0.00143477 6.55077e-14)
(-6.43328e-10 0.00143878 6.54982e-14)
(-6.45118e-10 0.00144278 6.55077e-14)
(-6.46907e-10 0.00144678 6.54982e-14)
(-6.48697e-10 0.00145078 6.55077e-14)
(-6.50486e-10 0.00145479 6.54982e-14)
(-6.52276e-10 0.00145879 6.55077e-14)
(-6.54065e-10 0.00146279 6.54981e-14)
(-6.55855e-10 0.00146679 6.55077e-14)
(-6.57644e-10 0.00147079 6.54981e-14)
(-6.59434e-10 0.0014748 6.55077e-14)
(-6.61223e-10 0.0014788 6.54981e-14)
(-6.63013e-10 0.0014828 6.55077e-14)
(-6.64802e-10 0.0014868 6.54981e-14)
(-6.66591e-10 0.0014908 6.55077e-14)
(-6.68381e-10 0.00149481 6.54981e-14)
(-6.7017e-10 0.00149881 6.55077e-14)
(-6.7196e-10 0.00150281 6.54981e-14)
(-6.73749e-10 0.00150681 6.55077e-14)
(-6.75539e-10 0.00151082 6.54981e-14)
(-6.77328e-10 0.00151482 6.55078e-14)
(-6.79118e-10 0.00151882 6.5498e-14)
(-6.80907e-10 0.00152282 6.55078e-14)
(-6.82697e-10 0.00152682 6.5498e-14)
(-6.84486e-10 0.00153083 6.55078e-14)
(-6.86276e-10 0.00153483 6.5498e-14)
(-6.88065e-10 0.00153883 6.55078e-14)
(-6.89855e-10 0.00154283 6.5498e-14)
(-6.91644e-10 0.00154684 6.55078e-14)
(-6.93434e-10 0.00155084 6.5498e-14)
(-6.95223e-10 0.00155484 6.55078e-14)
(-6.97013e-10 0.00155884 6.5498e-14)
(-6.98802e-10 0.00156284 6.55078e-14)
(-7.00592e-10 0.00156685 6.54979e-14)
(-7.02381e-10 0.00157085 6.55078e-14)
(-7.04171e-10 0.00157485 6.54979e-14)
(-7.0596e-10 0.00157885 6.55078e-14)
(-7.0775e-10 0.00158285 6.54979e-14)
(-7.09539e-10 0.00158686 6.55079e-14)
(-7.11329e-10 0.00159086 6.54979e-14)
(-7.13118e-10 0.00159486 6.55079e-14)
(-7.14908e-10 0.00159886 6.54979e-14)
(-7.16697e-10 0.00160287 6.55079e-14)
(-7.18487e-10 0.00160687 6.54979e-14)
(-7.20276e-10 0.00161087 6.55079e-14)
(-7.22066e-10 0.00161487 6.54979e-14)
(-7.23855e-10 0.00161887 6.55079e-14)
(-7.25645e-10 0.00162288 6.54978e-14)
(-7.27434e-10 0.00162688 6.55079e-14)
(-7.29224e-10 0.00163088 6.54978e-14)
(-7.31013e-10 0.00163488 6.55079e-14)
(-7.32803e-10 0.00163888 6.54978e-14)
(-7.34592e-10 0.00164289 6.55079e-14)
(-7.36382e-10 0.00164689 6.54978e-14)
(-7.38171e-10 0.00165089 6.55079e-14)
(-7.39961e-10 0.00165489 6.54978e-14)
(-7.4175e-10 0.0016589 6.5508e-14)
(-7.4354e-10 0.0016629 6.54978e-14)
(-7.45329e-10 0.0016669 6.5508e-14)
(-7.47119e-10 0.0016709 6.54977e-14)
(-7.48908e-10 0.0016749 6.5508e-14)
(-7.50698e-10 0.00167891 6.54977e-14)
(-7.52487e-10 0.00168291 6.5508e-14)
(-7.54277e-10 0.00168691 6.54977e-14)
(-7.56066e-10 0.00169091 6.5508e-14)
(-7.57856e-10 0.00169491 6.54977e-14)
(-7.59645e-10 0.00169892 6.5508e-14)
(-7.61434e-10 0.00170292 6.54977e-14)
(-7.63224e-10 0.00170692 6.5508e-14)
(-7.65013e-10 0.00171092 6.54977e-14)
(-7.66803e-10 0.00171493 6.5508e-14)
(-7.68592e-10 0.00171893 6.54976e-14)
(-7.70382e-10 0.00172293 6.55081e-14)
(-7.72171e-10 0.00172693 6.54976e-14)
(-7.73961e-10 0.00173093 6.55081e-14)
(-7.7575e-10 0.00173494 6.54976e-14)
(-7.7754e-10 0.00173894 6.55081e-14)
(-7.79329e-10 0.00174294 6.54976e-14)
(-7.81119e-10 0.00174694 6.55081e-14)
(-7.82908e-10 0.00175095 6.54976e-14)
(-7.84698e-10 0.00175495 6.55081e-14)
(-7.86487e-10 0.00175895 6.54976e-14)
(-7.88277e-10 0.00176295 6.55081e-14)
(-7.90066e-10 0.00176695 6.54975e-14)
(-7.91856e-10 0.00177096 6.55081e-14)
(-7.93645e-10 0.00177496 6.54975e-14)
(-7.95435e-10 0.00177896 6.55082e-14)
(-7.97224e-10 0.00178296 6.54975e-14)
(-7.99014e-10 0.00178696 6.55082e-14)
(-8.00803e-10 0.00179097 6.54975e-14)
(-8.02593e-10 0.00179497 6.55082e-14)
(-8.04382e-10 0.00179897 6.54975e-14)
(-8.06172e-10 0.00180297 6.55082e-14)
(-8.07961e-10 0.00180698 6.54975e-14)
(-8.09751e-10 0.00181098 6.55082e-14)
(-8.1154e-10 0.00181498 6.54974e-14)
(-8.1333e-10 0.00181898 6.55082e-14)
(-8.15119e-10 0.00182298 6.54974e-14)
(-8.16909e-10 0.00182699 6.55082e-14)
(-8.18698e-10 0.00183099 6.54974e-14)
(-8.20488e-10 0.00183499 6.55082e-14)
(-8.22277e-10 0.00183899 6.54974e-14)
(-8.24067e-10 0.00184299 6.55083e-14)
(-8.25856e-10 0.001847 6.54974e-14)
(-8.27646e-10 0.001851 6.55083e-14)
(-8.29435e-10 0.001855 6.54974e-14)
(-8.31225e-10 0.001859 6.55083e-14)
(-8.33014e-10 0.00186301 6.54973e-14)
(-8.34804e-10 0.00186701 6.55083e-14)
(-8.36593e-10 0.00187101 6.54973e-14)
(-8.38383e-10 0.00187501 6.55083e-14)
(-8.40172e-10 0.00187901 6.54973e-14)
(-8.41962e-10 0.00188302 6.55083e-14)
(-8.43751e-10 0.00188702 6.54973e-14)
(-8.45541e-10 0.00189102 6.55084e-14)
(-8.4733e-10 0.00189502 6.54973e-14)
(-8.4912e-10 0.00189902 6.55084e-14)
(-8.50909e-10 0.00190303 6.54973e-14)
(-8.52699e-10 0.00190703 6.55084e-14)
(-8.54488e-10 0.00191103 6.54972e-14)
(-8.56278e-10 0.00191503 6.55084e-14)
(-8.58067e-10 0.00191904 6.54972e-14)
(-8.59857e-10 0.00192304 6.55084e-14)
(-8.61646e-10 0.00192704 6.54972e-14)
(-8.63436e-10 0.00193104 6.55084e-14)
(-8.65225e-10 0.00193504 6.54972e-14)
(-8.67015e-10 0.00193905 6.55084e-14)
(-8.68804e-10 0.00194305 6.54972e-14)
(-8.70594e-10 0.00194705 6.55085e-14)
(-8.72383e-10 0.00195105 6.54972e-14)
(-8.74173e-10 0.00195506 6.55085e-14)
(-8.75962e-10 0.00195906 6.54971e-14)
(-8.77752e-10 0.00196306 6.55085e-14)
(-8.79541e-10 0.00196706 6.54971e-14)
(-8.81331e-10 0.00197106 6.55085e-14)
(-8.8312e-10 0.00197507 6.54971e-14)
(-8.8491e-10 0.00197907 6.55085e-14)
(-8.86699e-10 0.00198307 6.54971e-14)
(-8.88489e-10 0.00198707 6.55085e-14)
(-8.90278e-10 0.00199107 6.54971e-14)
(-8.92067e-10 0.00199508 6.55085e-14)
(-8.93857e-10 0.00199908 6.54971e-14)
(-8.95646e-10 0.00200308 6.55086e-14)
(-8.97436e-10 0.00200708 6.5497e-14)
(-8.99225e-10 0.00201109 6.55086e-14)
(-9.01015e-10 0.00201509 6.5497e-14)
(-9.02804e-10 0.00201909 6.55086e-14)
(-9.04594e-10 0.00202309 6.5497e-14)
(-9.06383e-10 0.00202709 6.55086e-14)
(-9.08173e-10 0.0020311 6.5497e-14)
(-9.09962e-10 0.0020351 6.55086e-14)
(-9.11752e-10 0.0020391 6.5497e-14)
(-9.13541e-10 0.0020431 6.55086e-14)
(-9.15331e-10 0.0020471 6.54969e-14)
(-9.1712e-10 0.00205111 6.55087e-14)
(-9.1891e-10 0.00205511 6.54969e-14)
(-9.20699e-10 0.00205911 6.55087e-14)
(-9.22489e-10 0.00206311 6.54969e-14)
(-9.24278e-10 0.00206712 6.55087e-14)
(-9.26068e-10 0.00207112 6.54969e-14)
(-9.27857e-10 0.00207512 6.55087e-14)
(-9.29647e-10 0.00207912 6.54969e-14)
(-9.31436e-10 0.00208312 6.55087e-14)
(-9.33226e-10 0.00208713 6.54969e-14)
(-9.35015e-10 0.00209113 6.55087e-14)
(-9.36805e-10 0.00209513 6.54968e-14)
(-9.38594e-10 0.00209913 6.55087e-14)
(-9.40384e-10 0.00210313 6.54968e-14)
(-9.42173e-10 0.00210714 6.55088e-14)
(-9.43963e-10 0.00211114 6.54968e-14)
(-9.45752e-10 0.00211514 6.55088e-14)
(-9.47542e-10 0.00211914 6.54968e-14)
(-9.49331e-10 0.00212315 6.55088e-14)
(-9.51121e-10 0.00212715 6.54968e-14)
(-9.5291e-10 0.00213115 6.55088e-14)
(-9.547e-10 0.00213515 6.54968e-14)
(-9.56489e-10 0.00213915 6.55088e-14)
(-9.58279e-10 0.00214316 6.54967e-14)
(-9.60068e-10 0.00214716 6.55088e-14)
(-9.61858e-10 0.00215116 6.54967e-14)
(-9.63647e-10 0.00215516 6.55089e-14)
(-9.65437e-10 0.00215917 6.54967e-14)
(-9.67226e-10 0.00216317 6.55089e-14)
(-9.69016e-10 0.00216717 6.54967e-14)
(-9.70805e-10 0.00217117 6.55089e-14)
(-9.72595e-10 0.00217517 6.54967e-14)
(-9.74384e-10 0.00217918 6.55089e-14)
(-9.76174e-10 0.00218318 6.54966e-14)
(-9.77963e-10 0.00218718 6.55089e-14)
(-9.79753e-10 0.00219118 6.54966e-14)
(-9.81542e-10 0.00219518 6.55089e-14)
(-9.83332e-10 0.00219919 6.54966e-14)
(-9.85121e-10 0.00220319 6.55089e-14)
(-9.86911e-10 0.00220719 6.54966e-14)
(-9.887e-10 0.00221119 6.5509e-14)
(-9.9049e-10 0.0022152 6.54966e-14)
(-9.92279e-10 0.0022192 6.5509e-14)
(-9.94069e-10 0.0022232 6.54966e-14)
(-9.95858e-10 0.0022272 6.5509e-14)
(-9.97648e-10 0.0022312 6.54965e-14)
(-9.99437e-10 0.00223521 6.5509e-14)
(-1.00123e-09 0.00223921 6.54965e-14)
(-1.00302e-09 0.00224321 6.5509e-14)
(-1.00481e-09 0.00224721 6.54965e-14)
(-1.0066e-09 0.00225121 6.55091e-14)
(-1.00838e-09 0.00225522 6.54965e-14)
(-1.01017e-09 0.00225922 6.55091e-14)
(-1.01196e-09 0.00226322 6.54965e-14)
(-1.01375e-09 0.00226722 6.55091e-14)
(-1.01554e-09 0.00227123 6.54965e-14)
(-1.01733e-09 0.00227523 6.55091e-14)
(-1.01912e-09 0.00227923 6.54964e-14)
(-1.02091e-09 0.00228323 6.55091e-14)
(-1.0227e-09 0.00228723 6.54964e-14)
(-1.02449e-09 0.00229124 6.55091e-14)
(-1.02628e-09 0.00229524 6.54964e-14)
(-1.02807e-09 0.00229924 6.55091e-14)
(-1.02986e-09 0.00230324 6.54964e-14)
(-1.03165e-09 0.00230724 6.55092e-14)
(-1.03344e-09 0.00231125 6.54964e-14)
(-1.03523e-09 0.00231525 6.55092e-14)
(-1.03702e-09 0.00231925 6.54963e-14)
(-1.03881e-09 0.00232325 6.55092e-14)
(-1.0406e-09 0.00232726 6.54963e-14)
(-1.04239e-09 0.00233126 6.55092e-14)
(-1.04417e-09 0.00233526 6.54963e-14)
(-1.04596e-09 0.00233926 6.55092e-14)
(-1.04775e-09 0.00234326 6.54963e-14)
(-1.04954e-09 0.00234727 6.55092e-14)
(-1.05133e-09 0.00235127 6.54963e-14)
(-1.05312e-09 0.00235527 6.55093e-14)
(-1.05491e-09 0.00235927 6.54963e-14)
(-1.0567e-09 0.00236328 6.55093e-14)
(-1.05849e-09 0.00236728 6.54962e-14)
(-1.06028e-09 0.00237128 6.55093e-14)
(-1.06207e-09 0.00237528 6.54962e-14)
(-1.06386e-09 0.00237928 6.55093e-14)
(-1.06565e-09 0.00238329 6.54962e-14)
(-1.06744e-09 0.00238729 6.55093e-14)
(-1.06923e-09 0.00239129 6.54962e-14)
(-1.07102e-09 0.00239529 6.55093e-14)
(-1.07281e-09 0.00239929 6.54962e-14)
(-1.0746e-09 0.0024033 6.55094e-14)
(-1.07639e-09 0.0024073 6.54961e-14)
(-1.07817e-09 0.0024113 6.55094e-14)
(-1.07996e-09 0.0024153 6.54961e-14)
(-1.08175e-09 0.00241931 6.55094e-14)
(-1.08354e-09 0.00242331 6.54961e-14)
(-1.08533e-09 0.00242731 6.55094e-14)
(-1.08712e-09 0.00243131 6.54961e-14)
(-1.08891e-09 0.00243531 6.55094e-14)
(-1.0907e-09 0.00243932 6.54961e-14)
(-1.09249e-09 0.00244332 6.55094e-14)
(-1.09428e-09 0.00244732 6.54961e-14)
(-1.09607e-09 0.00245132 6.55095e-14)
(-1.09786e-09 0.00245532 6.5496e-14)
(-1.09965e-09 0.00245933 6.55095e-14)
(-1.10144e-09 0.00246333 6.5496e-14)
(-1.10323e-09 0.00246733 6.55095e-14)
(-1.10502e-09 0.00247133 6.5496e-14)
(-1.10681e-09 0.00247534 6.55095e-14)
(-1.1086e-09 0.00247934 6.5496e-14)
(-1.11039e-09 0.00248334 6.55095e-14)
(-1.11218e-09 0.00248734 6.5496e-14)
(-1.11396e-09 0.00249134 6.55095e-14)
(-1.11575e-09 0.00249535 6.54959e-14)
(-1.11754e-09 0.00249935 6.55096e-14)
(-1.11933e-09 0.00250335 6.54959e-14)
(-1.12112e-09 0.00250735 6.55096e-14)
(-1.12291e-09 0.00251135 6.54959e-14)
(-1.1247e-09 0.00251536 6.55096e-14)
(-1.12649e-09 0.00251936 6.54959e-14)
(-1.12828e-09 0.00252336 6.55096e-14)
(-1.13007e-09 0.00252736 6.54959e-14)
(-1.13186e-09 0.00253137 6.55096e-14)
(-1.13365e-09 0.00253537 6.54959e-14)
(-1.13544e-09 0.00253937 6.55096e-14)
(-1.13723e-09 0.00254337 6.54958e-14)
(-1.13902e-09 0.00254737 6.55097e-14)
(-1.14081e-09 0.00255138 6.54958e-14)
(-1.1426e-09 0.00255538 6.55097e-14)
(-1.14439e-09 0.00255938 6.54958e-14)
(-1.14618e-09 0.00256338 6.55097e-14)
(-1.14797e-09 0.00256739 6.54958e-14)
(-1.14975e-09 0.00257139 6.55097e-14)
(-1.15154e-09 0.00257539 6.54958e-14)
(-1.15333e-09 0.00257939 6.55097e-14)
(-1.15512e-09 0.00258339 6.54958e-14)
(-1.15691e-09 0.0025874 6.55097e-14)
(-1.1587e-09 0.0025914 6.54957e-14)
(-1.16049e-09 0.0025954 6.55098e-14)
(-1.16228e-09 0.0025994 6.54957e-14)
(-1.16407e-09 0.0026034 6.55098e-14)
(-1.16586e-09 0.00260741 6.54957e-14)
(-1.16765e-09 0.00261141 6.55098e-14)
(-1.16944e-09 0.00261541 6.54957e-14)
(-1.17123e-09 0.00261941 6.55098e-14)
(-1.17302e-09 0.00262342 6.54957e-14)
(-1.17481e-09 0.00262742 6.55098e-14)
(-1.1766e-09 0.00263142 6.54956e-14)
(-1.17839e-09 0.00263542 6.55099e-14)
(-1.18018e-09 0.00263942 6.54956e-14)
(-1.18197e-09 0.00264343 6.55099e-14)
(-1.18376e-09 0.00264743 6.54956e-14)
(-1.18554e-09 0.00265143 6.55099e-14)
(-1.18733e-09 0.00265543 6.54956e-14)
(-1.18912e-09 0.00265943 6.55099e-14)
(-1.19091e-09 0.00266344 6.54956e-14)
(-1.1927e-09 0.00266744 6.55099e-14)
(-1.19449e-09 0.00267144 6.54956e-14)
(-1.19628e-09 0.00267544 6.55099e-14)
(-1.19807e-09 0.00267945 6.54955e-14)
(-1.19986e-09 0.00268345 6.551e-14)
(-1.20165e-09 0.00268745 6.54955e-14)
(-1.20344e-09 0.00269145 6.551e-14)
(-1.20523e-09 0.00269545 6.54955e-14)
(-1.20702e-09 0.00269946 6.551e-14)
(-1.20881e-09 0.00270346 6.54955e-14)
(-1.2106e-09 0.00270746 6.551e-14)
(-1.21239e-09 0.00271146 6.54955e-14)
(-1.21418e-09 0.00271546 6.551e-14)
(-1.21597e-09 0.00271947 6.54954e-14)
(-1.21776e-09 0.00272347 6.551e-14)
(-1.21955e-09 0.00272747 6.54954e-14)
(-1.22133e-09 0.00273147 6.55101e-14)
(-1.22312e-09 0.00273548 6.54954e-14)
(-1.22491e-09 0.00273948 6.55101e-14)
(-1.2267e-09 0.00274348 6.54954e-14)
(-1.22849e-09 0.00274748 6.55101e-14)
(-1.23028e-09 0.00275148 6.54954e-14)
(-1.23207e-09 0.00275549 6.55101e-14)
(-1.23386e-09 0.00275949 6.54954e-14)
(-1.23565e-09 0.00276349 6.55101e-14)
(-1.23744e-09 0.00276749 6.54953e-14)
(-1.23923e-09 0.0027715 6.55102e-14)
(-1.24102e-09 0.0027755 6.54953e-14)
(-1.24281e-09 0.0027795 6.55102e-14)
(-1.2446e-09 0.0027835 6.54953e-14)
(-1.24639e-09 0.0027875 6.55102e-14)
(-1.24818e-09 0.00279151 6.54953e-14)
(-1.24997e-09 0.00279551 6.55102e-14)
(-1.25176e-09 0.00279951 6.54953e-14)
(-1.25355e-09 0.00280351 6.55102e-14)
(-1.25534e-09 0.00280751 6.54952e-14)
(-1.25712e-09 0.00281152 6.55102e-14)
(-1.25891e-09 0.00281552 6.54952e-14)
(-1.2607e-09 0.00281952 6.55103e-14)
(-1.26249e-09 0.00282352 6.54952e-14)
(-1.26428e-09 0.00282753 6.55103e-14)
(-1.26607e-09 0.00283153 6.54952e-14)
(-1.26786e-09 0.00283553 6.55103e-14)
(-1.26965e-09 0.00283953 6.54952e-14)
(-1.27144e-09 0.00284353 6.55103e-14)
(-1.27323e-09 0.00284754 6.54952e-14)
(-1.27502e-09 0.00285154 6.55103e-14)
(-1.27681e-09 0.00285554 6.54951e-14)
(-1.2786e-09 0.00285954 6.55103e-14)
(-1.28039e-09 0.00286354 6.54951e-14)
(-1.28218e-09 0.00286755 6.55104e-14)
(-1.28397e-09 0.00287155 6.54951e-14)
(-1.28576e-09 0.00287555 6.55104e-14)
(-1.28755e-09 0.00287955 6.54951e-14)
(-1.28934e-09 0.00288356 6.55104e-14)
(-1.29113e-09 0.00288756 6.54951e-14)
(-1.29291e-09 0.00289156 6.55104e-14)
(-1.2947e-09 0.00289556 6.5495e-14)
(-1.29649e-09 0.00289956 6.55104e-14)
(-1.29828e-09 0.00290357 6.5495e-14)
(-1.30007e-09 0.00290757 6.55105e-14)
(-1.30186e-09 0.00291157 6.5495e-14)
(-1.30365e-09 0.00291557 6.55105e-14)
(-1.30544e-09 0.00291957 6.5495e-14)
(-1.30723e-09 0.00292358 6.55105e-14)
(-1.30902e-09 0.00292758 6.5495e-14)
(-1.31081e-09 0.00293158 6.55105e-14)
(-1.3126e-09 0.00293558 6.54949e-14)
(-1.31439e-09 0.00293959 6.55105e-14)
(-1.31618e-09 0.00294359 6.54949e-14)
(-1.31797e-09 0.00294759 6.55105e-14)
(-1.31976e-09 0.00295159 6.54949e-14)
(-1.32155e-09 0.00295559 6.55106e-14)
(-1.32334e-09 0.0029596 6.54949e-14)
(-1.32513e-09 0.0029636 6.55106e-14)
(-1.32692e-09 0.0029676 6.54949e-14)
(-1.3287e-09 0.0029716 6.55106e-14)
(-1.33049e-09 0.00297561 6.54949e-14)
(-1.33228e-09 0.00297961 6.55106e-14)
(-1.33407e-09 0.00298361 6.54948e-14)
(-1.33586e-09 0.00298761 6.55106e-14)
(-1.33765e-09 0.00299161 6.54948e-14)
(-1.33944e-09 0.00299562 6.55106e-14)
(-1.34123e-09 0.00299962 6.54948e-14)
(-1.34302e-09 0.00300362 6.55107e-14)
(-1.34481e-09 0.00300762 6.54948e-14)
(-1.3466e-09 0.00301162 6.55107e-14)
(-1.34839e-09 0.00301563 6.54948e-14)
(-1.35018e-09 0.00301963 6.55107e-14)
(-1.35197e-09 0.00302363 6.54947e-14)
(-1.35376e-09 0.00302763 6.55107e-14)
(-1.35555e-09 0.00303164 6.54947e-14)
(-1.35734e-09 0.00303564 6.55107e-14)
(-1.35913e-09 0.00303964 6.54947e-14)
(-1.36092e-09 0.00304364 6.55108e-14)
(-1.36271e-09 0.00304764 6.54947e-14)
(-1.36449e-09 0.00305165 6.55108e-14)
(-1.36628e-09 0.00305565 6.54947e-14)
(-1.36807e-09 0.00305965 6.55108e-14)