/*--------------------------------*- C++ -*----------------------------------*\
| =========                 |                                                 |
| \\      /  F ield         | OpenFOAM: The Open Source CFD Toolbox           |
|  \\    /   O peration     | Version:  2206                                  |
|   \\  /    A nd           | Website:  www.openfoam.com                      |
|    \\/     M anipulation  |                                                 |
\*---------------------------------------------------------------------------*/
FoamFile
{
    version     2.0;
    format      ascii;
    arch        "LSB;label=32;scalar=64";
    class       volScalarField;
    location    "120";
    object      p;
}
// * * * * * * * * * * * * * * * * * * * * * * * * * * * * * * * * * * * * * //

dimensions      [0 2 -2 0 0 0 0];

internalField   nonuniform List<scalar> 
50000
(
5.97956e-10
5.98286e-09
1.16184e-08
1.89688e-08
2.76111e-08
3.80558e-08
5.03668e-08
6.45967e-08
8.06386e-08
9.86094e-08
1.18483e-07
1.40272e-07
1.63978e-07
1.89613e-07
2.17172e-07
2.46665e-07
2.78089e-07
3.11449e-07
3.46745e-07
3.83979e-07
4.23152e-07
4.64265e-07
5.07319e-07
5.52314e-07
5.99251e-07
6.48132e-07
6.98955e-07
7.51722e-07
8.06433e-07
8.63088e-07
9.21688e-07
9.82233e-07
1.04472e-06
1.10916e-06
1.17554e-06
1.24387e-06
1.31414e-06
1.38636e-06
1.46053e-06
1.53664e-06
1.6147e-06
1.69471e-06
1.77666e-06
1.86056e-06
1.94641e-06
2.0342e-06
2.12394e-06
2.21563e-06
2.30927e-06
2.40485e-06
2.50239e-06
2.60186e-06
2.70329e-06
2.80667e-06
2.91199e-06
3.01926e-06
3.12848e-06
3.23964e-06
3.35276e-06
3.46782e-06
3.58483e-06
3.70379e-06
3.8247e-06
3.94755e-06
4.07236e-06
4.19911e-06
4.32781e-06
4.45846e-06
4.59105e-06
4.7256e-06
4.86209e-06
5.00053e-06
5.14092e-06
5.28326e-06
5.42755e-06
5.57378e-06
5.72196e-06
5.8721e-06
6.02418e-06
6.17821e-06
6.33418e-06
6.49211e-06
6.65199e-06
6.81381e-06
6.97758e-06
7.1433e-06
7.31097e-06
7.48059e-06
7.65216e-06
7.82567e-06
8.00114e-06
8.17855e-06
8.35791e-06
8.53922e-06
8.72248e-06
8.90769e-06
9.09484e-06
9.28395e-06
9.475e-06
9.668e-06
9.86296e-06
1.00599e-05
1.02587e-05
1.04595e-05
1.06622e-05
1.08669e-05
1.10736e-05
1.12822e-05
1.14927e-05
1.17052e-05
1.19197e-05
1.2136e-05
1.23544e-05
1.25747e-05
1.27969e-05
1.30211e-05
1.32472e-05
1.34753e-05
1.37053e-05
1.39373e-05
1.41712e-05
1.44071e-05
1.46449e-05
1.48847e-05
1.51264e-05
1.53701e-05
1.56157e-05
1.58633e-05
1.61128e-05
1.63643e-05
1.66177e-05
1.68731e-05
1.71304e-05
1.73896e-05
1.76509e-05
1.7914e-05
1.81791e-05
1.84462e-05
1.87152e-05
1.89862e-05
1.92591e-05
1.95339e-05
1.98107e-05
2.00895e-05
2.03702e-05
2.06528e-05
2.09374e-05
2.1224e-05
2.15125e-05
2.18029e-05
2.20953e-05
2.23897e-05
2.2686e-05
2.29842e-05
2.32844e-05
2.35865e-05
2.38906e-05
2.41967e-05
2.45047e-05
2.48146e-05
2.51265e-05
2.54403e-05
2.57561e-05
2.60738e-05
2.63935e-05
2.67151e-05
2.70387e-05
2.73643e-05
2.76917e-05
2.80212e-05
2.83525e-05
2.86859e-05
2.90211e-05
2.93584e-05
2.96975e-05
3.00387e-05
3.03817e-05
3.07267e-05
3.10737e-05
3.14226e-05
3.17735e-05
3.21263e-05
3.24811e-05
3.28378e-05
3.31965e-05
3.35571e-05
3.39196e-05
3.42841e-05
3.46506e-05
3.5019e-05
3.53894e-05
3.57617e-05
3.61359e-05
3.65121e-05
3.68903e-05
3.72704e-05
3.76524e-05
3.80364e-05
3.84224e-05
3.88103e-05
3.92001e-05
3.95919e-05
3.99857e-05
4.03814e-05
4.0779e-05
4.11786e-05
4.15801e-05
4.19836e-05
4.23891e-05
4.27965e-05
4.32058e-05
4.36171e-05
4.40303e-05
4.44455e-05
4.48626e-05
4.52817e-05
4.57028e-05
4.61257e-05
4.65507e-05
4.69776e-05
4.74064e-05
4.78372e-05
4.82699e-05
4.87046e-05
4.91412e-05
4.95798e-05
5.00203e-05
5.04628e-05
5.09072e-05
5.13535e-05
5.18019e-05
5.22521e-05
5.27044e-05
5.31585e-05
5.36146e-05
5.40727e-05
5.45327e-05
5.49947e-05
5.54586e-05
5.59244e-05
5.63923e-05
5.6862e-05
5.73337e-05
5.78074e-05
5.8283e-05
5.87605e-05
5.92401e-05
5.97215e-05
6.02049e-05
6.06903e-05
6.11776e-05
6.16668e-05
6.2158e-05
6.26512e-05
6.31463e-05
6.36433e-05
6.41423e-05
6.46432e-05
6.51461e-05
6.5651e-05
6.61578e-05
6.66665e-05
6.71772e-05
6.76898e-05
6.82044e-05
6.8721e-05
6.92395e-05
6.97599e-05
7.02823e-05
7.08066e-05
7.13329e-05
7.18611e-05
7.23913e-05
7.29234e-05
7.34575e-05
7.39935e-05
7.45315e-05
7.50714e-05
7.56133e-05
7.61571e-05
7.67029e-05
7.72506e-05
7.78003e-05
7.83519e-05
7.89055e-05
7.9461e-05
8.00185e-05
8.05779e-05
8.11393e-05
8.17026e-05
8.22679e-05
8.28351e-05
8.34042e-05
8.39753e-05
8.45484e-05
8.51234e-05
8.57004e-05
8.62793e-05
8.68601e-05
8.7443e-05
8.80277e-05
8.86144e-05
8.92031e-05
8.97937e-05
9.03862e-05
9.09807e-05
9.15772e-05
9.21756e-05
9.27759e-05
9.33782e-05
9.39825e-05
9.45887e-05
9.51968e-05
9.58069e-05
9.6419e-05
9.70329e-05
9.76489e-05
9.82668e-05
9.88866e-05
9.95084e-05
0.000100132
0.000100758
0.000101385
0.000102015
0.000102647
0.00010328
0.000103916
0.000104553
0.000105192
0.000105833
0.000106477
0.000107122
0.000107769
0.000108418
0.000109069
0.000109722
0.000110377
0.000111034
0.000111693
0.000112354
0.000113016
0.000113681
0.000114348
0.000115016
0.000115687
0.000116359
0.000117033
0.00011771
0.000118388
0.000119068
0.000119751
0.000120435
0.000121121
0.000121809
0.000122499
0.000123191
0.000123885
0.000124581
0.000125278
0.000125978
0.00012668
0.000127384
0.000128089
0.000128797
0.000129506
0.000130218
0.000130931
0.000131646
0.000132364
0.000133083
0.000133804
0.000134527
0.000135252
0.000135979
0.000136708
0.000137439
0.000138172
0.000138907
0.000139644
0.000140383
0.000141123
0.000141866
0.000142611
0.000143357
0.000144106
0.000144856
0.000145608
0.000146363
0.000147119
0.000147877
0.000148637
0.000149399
0.000150164
0.00015093
0.000151698
0.000152467
0.000153239
0.000154013
0.000154789
0.000155567
0.000156346
0.000157128
0.000157912
0.000158697
0.000159484
0.000160274
0.000161065
0.000161859
0.000162654
0.000163451
0.00016425
0.000165051
0.000165854
0.000166659
0.000167466
0.000168275
0.000169086
0.000169899
0.000170714
0.00017153
0.000172349
0.00017317
0.000173992
0.000174817
0.000175643
0.000176471
0.000177302
0.000178134
0.000178968
0.000179805
0.000180643
0.000181483
0.000182325
0.000183169
0.000184015
0.000184863
0.000185712
0.000186564
0.000187418
0.000188274
0.000189131
0.000189991
0.000190852
0.000191716
0.000192581
0.000193449
0.000194318
0.000195189
0.000196063
0.000196938
0.000197815
0.000198694
0.000199575
0.000200458
0.000201343
0.00020223
0.000203119
0.000204009
0.000204902
0.000205797
0.000206693
0.000207592
0.000208492
0.000209395
0.000210299
0.000211206
0.000212114
0.000213024
0.000213936
0.000214851
0.000215767
0.000216685
0.000217605
0.000218527
0.000219451
0.000220376
0.000221304
0.000222234
0.000223166
0.000224099
0.000225035
0.000225972
0.000226912
0.000227853
0.000228797
0.000229742
0.000230689
0.000231639
0.00023259
0.000233543
0.000234498
0.000235455
0.000236414
0.000237375
0.000238338
0.000239303
0.00024027
0.000241238
0.000242209
0.000243182
0.000244156
0.000245133
0.000246111
0.000247092
0.000248074
0.000249058
0.000250045
0.000251033
0.000252023
0.000253015
0.000254009
0.000255005
0.000256003
0.000257003
0.000258005
0.000259009
0.000260015
0.000261022
0.000262032
0.000263044
0.000264057
0.000265073
0.00026609
0.00026711
0.000268131
0.000269154
0.000270179
0.000271207
0.000272236
0.000273267
0.0002743
0.000275335
0.000276372
0.000277411
0.000278452
0.000279494
0.000280539
0.000281586
0.000282635
0.000283685
0.000284738
0.000285792
0.000286849
0.000287907
0.000288967
0.00029003
0.000291094
0.00029216
0.000293228
0.000294298
0.00029537
0.000296444
0.00029752
0.000298598
0.000299678
0.00030076
0.000301844
0.000302929
0.000304017
0.000305106
0.000306198
0.000307291
0.000308387
0.000309484
0.000310584
0.000311685
0.000312788
0.000313893
0.000315
0.000316109
0.00031722
0.000318333
0.000319448
0.000320565
0.000321684
0.000322805
0.000323928
0.000325052
0.000326179
0.000327307
0.000328438
0.00032957
0.000330705
0.000331841
0.000332979
0.00033412
0.000335262
0.000336406
0.000337552
0.0003387
0.00033985
0.000341002
0.000342156
0.000343312
0.00034447
0.000345629
0.000346791
0.000347955
0.00034912
0.000350288
0.000351457
0.000352629
0.000353802
0.000354978
0.000356155
0.000357334
0.000358515
0.000359698
0.000360884
0.000362071
0.00036326
0.00036445
0.000365643
0.000366838
0.000368035
0.000369234
0.000370434
0.000371637
0.000372842
0.000374048
0.000375257
0.000376467
0.000377679
0.000378894
0.00038011
0.000381328
0.000382548
0.000383771
0.000384995
0.000386221
0.000387449
0.000388679
0.00038991
0.000391144
0.00039238
0.000393618
0.000394857
0.000396099
0.000397343
0.000398588
0.000399835
0.000401085
0.000402336
0.00040359
0.000404845
0.000406102
0.000407361
0.000408622
0.000409885
0.00041115
0.000412417
0.000413686
0.000414957
0.00041623
0.000417505
0.000418781
0.00042006
0.000421341
0.000422623
0.000423908
0.000425194
0.000426482
0.000427773
0.000429065
0.000430359
0.000431655
0.000432954
0.000434254
0.000435556
0.00043686
0.000438166
0.000439474
0.000440783
0.000442095
0.000443409
0.000444725
0.000446042
0.000447362
0.000448683
0.000450007
0.000451332
0.00045266
0.000453989
0.00045532
0.000456653
0.000457989
0.000459326
0.000460665
0.000462006
0.000463349
0.000464694
0.00046604
0.000467389
0.00046874
0.000470093
0.000471447
0.000472804
0.000474163
0.000475523
0.000476886
0.00047825
0.000479616
0.000480985
0.000482355
0.000483727
0.000485101
0.000486477
0.000487855
0.000489235
0.000490617
0.000492001
0.000493387
0.000494775
0.000496165
0.000497556
0.00049895
0.000500346
0.000501743
0.000503143
0.000504544
0.000505947
0.000507353
0.00050876
0.000510169
0.000511581
0.000512994
0.000514409
0.000515826
0.000517245
0.000518666
0.000520089
0.000521513
0.00052294
0.000524369
0.0005258
0.000527232
0.000528667
0.000530103
0.000531542
0.000532982
0.000534425
0.000535869
0.000537315
0.000538763
0.000540214
0.000541666
0.00054312
0.000544576
0.000546034
0.000547494
0.000548956
0.000550419
0.000551885
0.000553353
0.000554823
0.000556294
0.000557768
0.000559243
0.000560721
0.0005622
0.000563681
0.000565165
0.00056665
0.000568137
0.000569626
0.000571117
0.000572611
0.000574106
0.000575602
0.000577101
0.000578602
0.000580105
0.00058161
0.000583116
0.000584625
0.000586136
0.000587648
0.000589163
0.000590679
0.000592198
0.000593718
0.00059524
0.000596764
0.000598291
0.000599819
0.000601349
0.000602881
0.000604415
0.000605951
0.000607489
0.000609028
0.00061057
0.000612114
0.00061366
0.000615207
0.000616757
0.000618308
0.000619862
0.000621417
0.000622975
0.000624534
0.000626095
0.000627658
0.000629224
0.000630791
0.00063236
0.000633931
0.000635504
0.000637079
0.000638656
0.000640234
0.000641815
0.000643398
0.000644983
0.000646569
0.000648158
0.000649748
0.000651341
0.000652935
0.000654531
0.00065613
0.00065773
0.000659332
0.000660936
0.000662542
0.000664151
0.000665761
0.000667372
0.000668986
0.000670602
0.00067222
0.00067384
0.000675461
0.000677085
0.000678711
0.000680338
0.000681968
0.000683599
0.000685233
0.000686868
0.000688505
0.000690144
0.000691786
0.000693429
0.000695074
0.000696721
0.00069837
0.000700021
0.000701674
0.000703329
0.000704985
0.000706644
0.000708305
0.000709967
0.000711632
0.000713298
0.000714967
0.000716637
0.00071831
0.000719984
0.00072166
0.000723339
0.000725019
0.000726701
0.000728385
0.000730071
0.000731759
0.000733449
0.000735141
0.000736834
0.00073853
0.000740228
0.000741928
0.000743629
0.000745333
0.000747038
0.000748746
0.000750455
0.000752166
0.00075388
0.000755595
0.000757312
0.000759031
0.000760752
0.000762476
0.000764201
0.000765927
0.000767656
0.000769387
0.00077112
0.000772855
0.000774591
0.00077633
0.000778071
0.000779813
0.000781558
0.000783304
0.000785053
0.000786803
0.000788555
0.000790309
0.000792066
0.000793824
0.000795584
0.000797346
0.00079911
0.000800876
0.000802644
0.000804414
0.000806185
0.000807959
0.000809735
0.000811512
0.000813292
0.000815073
0.000816857
0.000818642
0.00082043
0.000822219
0.00082401
0.000825803
0.000827599
0.000829396
0.000831195
0.000832996
0.000834799
0.000836604
0.000838411
0.000840219
0.00084203
0.000843843
0.000845658
0.000847474
0.000849293
0.000851113
0.000852936
0.00085476
0.000856586
0.000858415
0.000860245
0.000862077
0.000863911
0.000865747
0.000867586
0.000869426
0.000871267
0.000873111
0.000874957
0.000876805
0.000878655
0.000880506
0.00088236
0.000884216
0.000886073
0.000887933
0.000889794
0.000891658
0.000893523
0.00089539
0.000897259
0.000899131
0.000901004
0.000902879
0.000904756
0.000906635
0.000908516
0.000910399
0.000912283
0.00091417
0.000916059
0.00091795
0.000919842
0.000921737
0.000923633
0.000925532
0.000927432
0.000929335
0.000931239
0.000933145
0.000935053
0.000936964
0.000938876
0.00094079
0.000942706
0.000944624
0.000946544
0.000948466
0.000950389
0.000952315
0.000954243
0.000956173
0.000958104
0.000960038
0.000961973
0.000963911
0.00096585
0.000967791
0.000969735
0.00097168
0.000973627
0.000975576
0.000977527
0.00097948
0.000981435
0.000983392
0.000985351
0.000987312
0.000989275
0.00099124
0.000993206
0.000995175
0.000997146
0.000999118
0.00100109
0.00100307
0.00100505
0.00100703
0.00100901
0.00101099
0.00101298
0.00101497
0.00101696
0.00101895
0.00102094
0.00102294
0.00102494
0.00102694
0.00102894
0.00103094
0.00103295
0.00103496
0.00103697
0.00103898
0.00104099
0.00104301
0.00104502
0.00104704
0.00104907
0.00105109
0.00105311
0.00105514
0.00105717
0.0010592
0.00106123
0.00106327
0.00106531
0.00106734
0.00106939
0.00107143
0.00107347
0.00107552
0.00107757
0.00107962
0.00108167
0.00108372
0.00108578
0.00108784
0.0010899
0.00109196
0.00109403
0.00109609
0.00109816
0.00110023
0.0011023
0.00110438
0.00110645
0.00110853
0.00111061
0.00111269
0.00111477
0.00111686
0.00111895
0.00112104
0.00112313
0.00112522
0.00112732
0.00112942
0.00113151
0.00113362
0.00113572
0.00113782
0.00113993
0.00114204
0.00114415
0.00114626
0.00114838
0.0011505
0.00115261
0.00115473
0.00115686
0.00115898
0.00116111
0.00116324
0.00116537
0.0011675
0.00116963
0.00117177
0.00117391
0.00117605
0.00117819
0.00118033
0.00118248
0.00118463
0.00118678
0.00118893
0.00119108
0.00119324
0.0011954
0.00119756
0.00119972
0.00120188
0.00120405
0.00120622
0.00120838
0.00121056
0.00121273
0.0012149
0.00121708
0.00121926
0.00122144
0.00122363
0.00122581
0.001228
0.00123019
0.00123238
0.00123457
0.00123676
0.00123896
0.00124116
0.00124336
0.00124556
0.00124777
0.00124997
0.00125218
0.00125439
0.0012566
0.00125882
0.00126104
0.00126325
0.00126547
0.0012677
0.00126992
0.00127215
0.00127437
0.0012766
0.00127883
0.00128107
0.0012833
0.00128554
0.00128778
0.00129002
0.00129227
0.00129451
0.00129676
0.00129901
0.00130126
0.00130351
0.00130577
0.00130803
0.00131028
0.00131255
0.00131481
0.00131707
0.00131934
0.00132161
0.00132388
0.00132615
0.00132843
0.0013307
0.00133298
0.00133526
0.00133755
0.00133983
0.00134212
0.0013444
0.00134669
0.00134899
0.00135128
0.00135358
0.00135588
0.00135818
0.00136048
0.00136278
0.00136509
0.00136739
0.0013697
0.00137202
0.00137433
0.00137665
0.00137896
0.00138128
0.0013836
0.00138593
0.00138825
0.00139058
0.00139291
0.00139524
0.00139757
0.00139991
0.00140225
0.00140458
0.00140693
0.00140927
0.00141161
0.00141396
0.00141631
0.00141866
0.00142101
0.00142337
0.00142572
0.00142808
0.00143044
0.0014328
0.00143517
0.00143753
0.0014399
0.00144227
0.00144465
0.00144702
0.0014494
0.00145177
0.00145415
0.00145654
0.00145892
0.0014613
0.00146369
0.00146608
0.00146847
0.00147087
0.00147326
0.00147566
0.00147806
0.00148046
0.00148286
0.00148527
0.00148768
0.00149009
0.0014925
0.00149491
0.00149733
0.00149974
0.00150216
0.00150458
0.001507
0.00150943
0.00151186
0.00151428
0.00151672
0.00151915
0.00152158
0.00152402
0.00152646
0.0015289
0.00153134
0.00153378
0.00153623
0.00153868
0.00154113
0.00154358
0.00154603
0.00154849
0.00155095
0.00155341
0.00155587
0.00155833
0.0015608
0.00156327
0.00156574
0.00156821
0.00157068
0.00157316
0.00157563
0.00157811
0.00158059
0.00158308
0.00158556
0.00158805
0.00159054
0.00159303
0.00159552
0.00159802
0.00160052
0.00160301
0.00160551
0.00160802
0.00161052
0.00161303
0.00161554
0.00161805
0.00162056
0.00162307
0.00162559
0.00162811
0.00163063
0.00163315
0.00163568
0.0016382
0.00164073
0.00164326
0.00164579
0.00164833
0.00165086
0.0016534
0.00165594
0.00165848
0.00166102
0.00166357
0.00166612
0.00166867
0.00167122
0.00167377
0.00167633
0.00167888
0.00168144
0.001684
0.00168657
0.00168913
0.0016917
0.00169427
0.00169684
0.00169941
0.00170199
0.00170456
0.00170714
0.00170972
0.00171231
0.00171489
0.00171748
0.00172007
0.00172266
0.00172525
0.00172784
0.00173044
0.00173304
0.00173564
0.00173824
0.00174084
0.00174345
0.00174606
0.00174867
0.00175128
0.00175389
0.00175651
0.00175913
0.00176175
0.00176437
0.00176699
0.00176962
0.00177224
0.00177487
0.00177751
0.00178014
0.00178277
0.00178541
0.00178805
0.00179069
0.00179333
0.00179598
0.00179863
0.00180128
0.00180393
0.00180658
0.00180923
0.00181189
0.00181455
0.00181721
0.00181987
0.00182254
0.0018252
0.00182787
0.00183054
0.00183321
0.00183589
0.00183856
0.00184124
0.00184392
0.0018466
0.00184929
0.00185197
0.00185466
0.00185735
0.00186004
0.00186274
0.00186543
0.00186813
0.00187083
0.00187353
0.00187624
0.00187894
0.00188165
0.00188436
0.00188707
0.00188978
0.0018925
0.00189521
0.00189793
0.00190065
0.00190338
0.0019061
0.00190883
0.00191156
0.00191429
0.00191702
0.00191976
0.00192249
0.00192523
0.00192797
0.00193071
0.00193346
0.00193621
0.00193895
0.0019417
0.00194446
0.00194721
0.00194997
0.00195272
0.00195548
0.00195825
0.00196101
0.00196378
0.00196654
0.00196931
0.00197209
0.00197486
0.00197763
0.00198041
0.00198319
0.00198597
0.00198876
0.00199154
0.00199433
0.00199712
0.00199991
0.0020027
0.0020055
0.00200829
0.00201109
0.00201389
0.0020167
0.0020195
0.00202231
0.00202512
0.00202793
0.00203074
0.00203356
0.00203637
0.00203919
0.00204201
0.00204483
0.00204766
0.00205048
0.00205331
0.00205614
0.00205897
0.00206181
0.00206464
0.00206748
0.00207032
0.00207316
0.00207601
0.00207885
0.0020817
0.00208455
0.0020874
0.00209026
0.00209311
0.00209597
0.00209883
0.00210169
0.00210455
0.00210742
0.00211029
0.00211316
0.00211603
0.0021189
0.00212177
0.00212465
0.00212753
0.00213041
0.00213329
0.00213618
0.00213907
0.00214195
0.00214484
0.00214774
0.00215063
0.00215353
0.00215643
0.00215933
0.00216223
0.00216513
0.00216804
0.00217095
0.00217386
0.00217677
0.00217968
0.0021826
0.00218552
0.00218844
0.00219136
0.00219428
0.00219721
0.00220014
0.00220307
0.002206
0.00220893
0.00221187
0.0022148
0.00221774
0.00222068
0.00222363
0.00222657
0.00222952
0.00223247
0.00223542
0.00223837
0.00224133
0.00224428
0.00224724
0.0022502
0.00225317
0.00225613
0.0022591
0.00226207
0.00226504
0.00226801
0.00227098
0.00227396
0.00227694
0.00227992
0.0022829
0.00228588
0.00228887
0.00229186
0.00229485
0.00229784
0.00230083
0.00230383
0.00230683
0.00230983
0.00231283
0.00231583
0.00231884
0.00232185
0.00232486
0.00232787
0.00233088
0.0023339
0.00233691
0.00233993
0.00234295
0.00234598
0.002349
0.00235203
0.00235506
0.00235809
0.00236112
0.00236416
0.00236719
0.00237023
0.00237327
0.00237632
0.00237936
0.00238241
0.00238546
0.00238851
0.00239156
0.00239461
0.00239767
0.00240073
0.00240379
0.00240685
0.00240991
0.00241298
0.00241605
0.00241912
0.00242219
0.00242526
0.00242834
0.00243142
0.0024345
0.00243758
0.00244066
0.00244375
0.00244683
0.00244992
0.00245301
0.00245611
0.0024592
0.0024623
0.0024654
0.0024685
0.0024716
0.00247471
0.00247782
0.00248092
0.00248404
0.00248715
0.00249026
0.00249338
0.0024965
0.00249962
0.00250274
0.00250587
0.00250899
0.00251212
0.00251525
0.00251838
0.00252152
0.00252465
0.00252779
0.00253093
0.00253407
0.00253722
0.00254036
0.00254351
0.00254666
0.00254981
0.00255297
0.00255612
0.00255928
0.00256244
0.0025656
0.00256877
0.00257193
0.0025751
0.00257827
0.00258144
0.00258461
0.00258779
0.00259096
0.00259414
0.00259732
0.00260051
0.00260369
0.00260688
0.00261007
0.00261326
0.00261645
0.00261965
0.00262284
0.00262604
0.00262924
0.00263244
0.00263565
0.00263885
0.00264206
0.00264527
0.00264849
0.0026517
0.00265492
0.00265813
0.00266135
0.00266458
0.0026678
0.00267103
0.00267425
0.00267748
0.00268071
0.00268395
0.00268718
0.00269042
0.00269366
0.0026969
0.00270015
0.00270339
0.00270664
0.00270989
0.00271314
0.00271639
0.00271965
0.0027229
0.00272616
0.00272942
0.00273269
0.00273595
0.00273922
0.00274249
0.00274576
0.00274903
0.0027523
0.00275558
0.00275886
0.00276214
0.00276542
0.00276871
0.00277199
0.00277528
0.00277857
0.00278186
0.00278516
0.00278845
0.00279175
0.00279505
0.00279835
0.00280166
0.00280496
0.00280827
0.00281158
0.00281489
0.00281821
0.00282152
0.00282484
0.00282816
0.00283148
0.0028348
0.00283813
0.00284146
0.00284478
0.00284812
0.00285145
0.00285478
0.00285812
0.00286146
0.0028648
0.00286814
0.00287149
0.00287483
0.00287818
0.00288153
0.00288489
0.00288824
0.0028916
0.00289496
0.00289832
0.00290168
0.00290504
0.00290841
0.00291178
0.00291515
0.00291852
0.00292189
0.00292527
0.00292865
0.00293203
0.00293541
0.00293879
0.00294218
0.00294556
0.00294895
0.00295235
0.00295574
0.00295913
0.00296253
0.00296593
0.00296933
0.00297274
0.00297614
0.00297955
0.00298296
0.00298637
0.00298978
0.0029932
0.00299661
0.00300003
0.00300345
0.00300688
0.0030103
0.00301373
0.00301716
0.00302059
0.00302402
0.00302745
0.00303089
0.00303433
0.00303777
0.00304121
0.00304465
0.0030481
0.00305155
0.003055
0.00305845
0.0030619
0.00306536
0.00306882
0.00307228
0.00307574
0.0030792
0.00308267
0.00308614
0.00308961
0.00309308
0.00309655
0.00310003
0.0031035
0.00310698
0.00311046
0.00311395
0.00311743
0.00312092
0.00312441
0.0031279
0.00313139
0.00313489
0.00313838
0.00314188
0.00314538
0.00314888
0.00315239
0.0031559
0.0031594
0.00316291
0.00316643
0.00316994
0.00317346
0.00317698
0.0031805
0.00318402
0.00318754
0.00319107
0.0031946
0.00319813
0.00320166
0.00320519
0.00320873
0.00321227
0.0032158
0.00321935
0.00322289
0.00322644
0.00322998
0.00323353
0.00323708
0.00324064
0.00324419
0.00324775
0.00325131
0.00325487
0.00325843
0.003262
0.00326556
0.00326913
0.0032727
0.00327628
0.00327985
0.00328343
0.00328701
0.00329059
0.00329417
0.00329775
0.00330134
0.00330493
0.00330852
0.00331211
0.00331571
0.0033193
0.0033229
0.0033265
0.0033301
0.00333371
0.00333731
0.00334092
0.00334453
0.00334814
0.00335176
0.00335537
0.00335899
0.00336261
0.00336623
0.00336985
0.00337348
0.00337711
0.00338074
0.00338437
0.003388
0.00339164
0.00339527
0.00339891
0.00340255
0.0034062
0.00340984
0.00341349
0.00341714
0.00342079
0.00342444
0.00342809
0.00343175
0.00343541
0.00343907
0.00344273
0.0034464
0.00345006
0.00345373
0.0034574
0.00346107
0.00346475
0.00346842
0.0034721
0.00347578
0.00347946
0.00348315
0.00348683
0.00349052
0.00349421
0.0034979
0.0035016
0.00350529
0.00350899
0.00351269
0.00351639
0.00352009
0.0035238
0.00352751
0.00353122
0.00353493
0.00353864
0.00354236
0.00354607
0.00354979
0.00355351
0.00355724
0.00356096
0.00356469
0.00356842
0.00357215
0.00357588
0.00357961
0.00358335
0.00358709
0.00359083
0.00359457
0.00359832
0.00360206
0.00360581
0.00360956
0.00361331
0.00361707
0.00362082
0.00362458
0.00362834
0.0036321
0.00363587
0.00363963
0.0036434
0.00364717
0.00365094
0.00365471
0.00365849
0.00366227
0.00366605
0.00366983
0.00367361
0.0036774
0.00368118
0.00368497
0.00368876
0.00369256
0.00369635
0.00370015
0.00370395
0.00370775
0.00371155
0.00371536
0.00371916
0.00372297
0.00372678
0.00373059
0.00373441
0.00373823
0.00374204
0.00374586
0.00374969
0.00375351
0.00375734
0.00376117
0.003765
0.00376883
0.00377266
0.0037765
0.00378034
0.00378417
0.00378802
0.00379186
0.00379571
0.00379955
0.0038034
0.00380725
0.00381111
0.00381496
0.00381882
0.00382268
0.00382654
0.0038304
0.00383427
0.00383814
0.00384201
0.00384588
0.00384975
0.00385363
0.0038575
0.00386138
0.00386526
0.00386914
0.00387303
0.00387692
0.0038808
0.00388469
0.00388859
0.00389248
0.00389638
0.00390028
0.00390418
0.00390808
0.00391198
0.00391589
0.0039198
0.00392371
0.00392762
0.00393153
0.00393545
0.00393937
0.00394329
0.00394721
0.00395113
0.00395506
0.00395898
0.00396291
0.00396685
0.00397078
0.00397471
0.00397865
0.00398259
0.00398653
0.00399047
0.00399442
0.00399837
0.00400232
0.00400627
0.00401022
0.00401417
0.00401813
0.00402209
0.00402605
0.00403001
0.00403398
0.00403794
0.00404191
0.00404588
0.00404986
0.00405383
0.00405781
0.00406178
0.00406576
0.00406975
0.00407373
0.00407772
0.0040817
0.00408569
0.00408969
0.00409368
0.00409768
0.00410167
0.00410567
0.00410968
0.00411368
0.00411768
0.00412169
0.0041257
0.00412971
0.00413373
0.00413774
0.00414176
0.00414578
0.0041498
0.00415382
0.00415785
0.00416187
0.0041659
0.00416993
0.00417397
0.004178
0.00418204
0.00418608
0.00419012
0.00419416
0.0041982
0.00420225
0.0042063
0.00421035
0.0042144
0.00421846
0.00422251
0.00422657
0.00423063
0.00423469
0.00423876
0.00424282
0.00424689
0.00425096
0.00425503
0.0042591
0.00426318
0.00426726
0.00427134
0.00427542
0.0042795
0.00428359
0.00428768
0.00429176
0.00429586
0.00429995
0.00430404
0.00430814
0.00431224
0.00431634
0.00432044
0.00432455
0.00432866
0.00433276
0.00433688
0.00434099
0.0043451
0.00434922
0.00435334
0.00435746
0.00436158
0.00436571
0.00436983
0.00437396
0.00437809
0.00438222
0.00438636
0.00439049
0.00439463
0.00439877
0.00440291
0.00440706
0.0044112
0.00441535
0.0044195
0.00442365
0.00442781
0.00443196
0.00443612
0.00444028
0.00444444
0.0044486
0.00445277
0.00445694
0.0044611
0.00446528
0.00446945
0.00447362
0.0044778
0.00448198
0.00448616
0.00449034
0.00449453
0.00449872
0.0045029
0.00450709
0.00451129
0.00451548
0.00451968
0.00452388
0.00452808
0.00453228
0.00453648
0.00454069
0.0045449
0.00454911
0.00455332
0.00455753
0.00456175
0.00456597
0.00457019
0.00457441
0.00457863
0.00458286
0.00458709
0.00459132
0.00459555
0.00459978
0.00460402
0.00460826
0.0046125
0.00461674
0.00462098
0.00462523
0.00462947
0.00463372
0.00463797
0.00464223
0.00464648
0.00465074
0.004655
0.00465926
0.00466352
0.00466778
0.00467205
0.00467632
0.00468059
0.00468486
0.00468914
0.00469341
0.00469769
0.00470197
0.00470626
0.00471054
0.00471483
0.00471911
0.0047234
0.0047277
0.00473199
0.00473629
0.00474058
0.00474488
0.00474919
0.00475349
0.00475779
0.0047621
0.00476641
0.00477072
0.00477504
0.00477935
0.00478367
0.00478799
0.00479231
0.00479663
0.00480096
0.00480529
0.00480961
0.00481395
0.00481828
0.00482261
0.00482695
0.00483129
0.00483563
0.00483997
0.00484432
0.00484866
0.00485301
0.00485736
0.00486172
0.00486607
0.00487043
0.00487478
0.00487914
0.00488351
0.00488787
0.00489224
0.00489661
0.00490098
0.00490535
0.00490972
0.0049141
0.00491847
0.00492285
0.00492724
0.00493162
0.00493601
0.00494039
0.00494478
0.00494917
0.00495357
0.00495796
0.00496236
0.00496676
0.00497116
0.00497556
0.00497997
0.00498438
0.00498878
0.0049932
0.00499761
0.00500202
0.00500644
0.00501086
0.00501528
0.0050197
0.00502413
0.00502855
0.00503298
0.00503741
0.00504184
0.00504628
0.00505071
0.00505515
0.00505959
0.00506404
0.00506848
0.00507293
0.00507737
0.00508182
0.00508627
0.00509073
0.00509518
0.00509964
0.0051041
0.00510856
0.00511303
0.00511749
0.00512196
0.00512643
0.0051309
0.00513537
0.00513985
0.00514433
0.00514881
0.00515329
0.00515777
0.00516225
0.00516674
0.00517123
0.00517572
0.00518021
0.00518471
0.00518921
0.0051937
0.0051982
0.00520271
0.00520721
0.00521172
0.00521623
0.00522074
0.00522525
0.00522976
0.00523428
0.0052388
0.00524332
0.00524784
0.00525236
0.00525689
0.00526142
0.00526595
0.00527048
0.00527501
0.00527955
0.00528409
0.00528863
0.00529317
0.00529771
0.00530226
0.0053068
0.00531135
0.0053159
0.00532046
0.00532501
0.00532957
0.00533413
0.00533869
0.00534325
0.00534782
0.00535238
0.00535695
0.00536152
0.0053661
0.00537067
0.00537525
0.00537983
0.00538441
0.00538899
0.00539357
0.00539816
0.00540275
0.00540734
0.00541193
0.00541653
0.00542112
0.00542572
0.00543032
0.00543492
0.00543953
0.00544413
0.00544874
0.00545335
0.00545796
0.00546257
0.00546719
0.00547181
0.00547643
0.00548105
0.00548567
0.0054903
0.00549492
0.00549955
0.00550418
0.00550882
0.00551345
0.00551809
0.00552273
0.00552737
0.00553201
0.00553666
0.0055413
0.00554595
0.0055506
0.00555526
0.00555991
0.00556457
0.00556923
0.00557389
0.00557855
0.00558321
0.00558788
0.00559255
0.00559722
0.00560189
0.00560656
0.00561124
0.00561592
0.0056206
0.00562528
0.00562996
0.00563465
0.00563934
0.00564403
0.00564872
0.00565341
0.00565811
0.0056628
0.0056675
0.0056722
0.00567691
0.00568161
0.00568632
0.00569103
0.00569574
0.00570045
0.00570517
0.00570989
0.0057146
0.00571933
0.00572405
0.00572877
0.0057335
0.00573823
0.00574296
0.00574769
0.00575243
0.00575716
0.0057619
0.00576664
0.00577138
0.00577613
0.00578087
0.00578562
0.00579037
0.00579512
0.00579988
0.00580463
0.00580939
0.00581415
0.00581891
0.00582368
0.00582844
0.00583321
0.00583798
0.00584275
0.00584752
0.0058523
0.00585708
0.00586186
0.00586664
0.00587142
0.00587621
0.00588099
0.00588578
0.00589057
0.00589537
0.00590016
0.00590496
0.00590976
0.00591456
0.00591936
0.00592417
0.00592897
0.00593378
0.00593859
0.0059434
0.00594822
0.00595303
0.00595785
0.00596267
0.0059675
0.00597232
0.00597715
0.00598197
0.0059868
0.00599164
0.00599647
0.00600131
0.00600614
0.00601098
0.00601582
0.00602067
0.00602551
0.00603036
0.00603521
0.00604006
0.00604492
0.00604977
0.00605463
0.00605949
0.00606435
0.00606921
0.00607408
0.00607894
0.00608381
0.00608868
0.00609356
0.00609843
0.00610331
0.00610819
0.00611307
0.00611795
0.00612283
0.00612772
0.00613261
0.0061375
0.00614239
0.00614729
0.00615218
0.00615708
0.00616198
0.00616688
0.00617179
0.00617669
0.0061816
0.00618651
0.00619142
0.00619634
0.00620125
0.00620617
0.00621109
0.00621601
0.00622094
0.00622586
0.00623079
0.00623572
0.00624065
0.00624558
0.00625052
0.00625545
0.00626039
0.00626533
0.00627028
0.00627522
0.00628017
0.00628512
0.00629007
0.00629502
0.00629998
0.00630493
0.00630989
0.00631485
0.00631982
0.00632478
0.00632975
0.00633471
0.00633969
0.00634466
0.00634963
0.00635461
0.00635959
0.00636457
0.00636955
0.00637453
0.00637952
0.00638451
0.0063895
0.00639449
0.00639948
0.00640448
0.00640947
0.00641447
0.00641948
0.00642448
0.00642948
0.00643449
0.0064395
0.00644451
0.00644953
0.00645454
0.00645956
0.00646458
0.0064696
0.00647462