/*--------------------------------*- C++ -*----------------------------------*\
| =========                 |                                                 |
| \\      /  F ield         | OpenFOAM: The Open Source CFD Toolbox           |
|  \\    /   O peration     | Version:  2206                                  |
|   \\  /    A nd           | Website:  www.openfoam.com                      |
|    \\/     M anipulation  |                                                 |
\*---------------------------------------------------------------------------*/
FoamFile
{
    version     2.0;
    format      ascii;
    arch        "LSB;label=32;scalar=64";
    class       volScalarField;
    location    "120";
    object      p;
}
// * * * * * * * * * * * * * * * * * * * * * * * * * * * * * * * * * * * * * //

dimensions      [0 2 -2 0 0 0 0];

internalField   nonuniform List<scalar> 
100000
(
-6.54381e-09
-1.34933e-07
-8.35669e-08
-1.55046e-07
-1.81212e-07
-2.0642e-07
-2.29447e-07
-2.2664e-07
-2.39191e-07
-2.24639e-07
-2.09106e-07
-2.00253e-07
-1.85125e-07
-1.65861e-07
-1.4533e-07
-1.22675e-07
-1.03807e-07
-7.73189e-08
-5.32332e-08
-2.24841e-08
5.63648e-09
3.47929e-08
6.64583e-08
1.00635e-07
1.36296e-07
1.75429e-07
2.1478e-07
2.52198e-07
2.95244e-07
3.37378e-07
3.84744e-07
4.31034e-07
4.76302e-07
5.2658e-07
5.76332e-07
6.31098e-07
6.84862e-07
7.3764e-07
7.95311e-07
8.52634e-07
9.14744e-07
9.76109e-07
1.03621e-06
1.1015e-06
1.16613e-06
1.23587e-06
1.30453e-06
1.37226e-06
1.44486e-06
1.51711e-06
1.59417e-06
1.67043e-06
1.74549e-06
1.82568e-06
1.90527e-06
1.9899e-06
2.07352e-06
2.15613e-06
2.24371e-06
2.3308e-06
2.42287e-06
2.51394e-06
2.60405e-06
2.69901e-06
2.79368e-06
2.89302e-06
2.9918e-06
3.08902e-06
3.19188e-06
3.29343e-06
3.40095e-06
3.50626e-06
3.61207e-06
3.72097e-06
3.83171e-06
3.94458e-06
4.06026e-06
4.17674e-06
4.29072e-06
4.41089e-06
4.52958e-06
4.65403e-06
4.77687e-06
4.89918e-06
5.02607e-06
5.1528e-06
5.2842e-06
5.41488e-06
5.54431e-06
5.6789e-06
5.81285e-06
5.95187e-06
6.08984e-06
6.22683e-06
6.36875e-06
6.51023e-06
6.65662e-06
6.80208e-06
6.94646e-06
7.09586e-06
7.24474e-06
7.39859e-06
7.55148e-06
7.70329e-06
7.86014e-06
8.01642e-06
8.17776e-06
8.338e-06
8.49736e-06
8.66149e-06
8.8254e-06
8.99392e-06
9.16191e-06
9.3283e-06
9.50038e-06
9.67109e-06
9.84783e-06
1.00223e-05
1.01973e-05
1.03753e-05
1.05553e-05
1.07373e-05
1.09222e-05
1.11078e-05
1.12909e-05
1.14802e-05
1.16681e-05
1.18617e-05
1.20537e-05
1.22451e-05
1.24412e-05
1.2637e-05
1.28376e-05
1.30374e-05
1.32359e-05
1.34396e-05
1.36427e-05
1.38509e-05
1.4058e-05
1.42641e-05
1.44751e-05
1.46857e-05
1.49012e-05
1.51158e-05
1.53293e-05
1.55478e-05
1.57658e-05
1.59888e-05
1.62107e-05
1.64317e-05
1.66576e-05
1.68831e-05
1.71134e-05
1.73429e-05
1.75712e-05
1.78046e-05
1.80374e-05
1.82753e-05
1.8512e-05
1.87479e-05
1.89886e-05
1.9229e-05
1.94741e-05
1.97186e-05
1.99615e-05
2.02101e-05
2.04573e-05
2.07106e-05
2.09616e-05
2.12131e-05
2.14677e-05
2.17241e-05
2.19826e-05
2.22441e-05
2.25061e-05
2.27659e-05
2.30316e-05
2.3296e-05
2.35661e-05
2.38346e-05
2.41026e-05
2.43751e-05
2.46475e-05
2.49246e-05
2.52009e-05
2.5476e-05
2.57562e-05
2.60358e-05
2.63204e-05
2.6604e-05
2.68866e-05
2.71742e-05
2.74613e-05
2.77533e-05
2.80444e-05
2.83344e-05
2.86294e-05
2.89239e-05
2.92234e-05
2.95219e-05
2.98193e-05
3.01218e-05
3.04236e-05
3.07306e-05
3.10364e-05
3.13414e-05
3.16511e-05
3.19606e-05
3.22748e-05
3.25883e-05
3.29003e-05
3.3218e-05
3.35343e-05
3.38566e-05
3.41767e-05
3.44973e-05
3.48209e-05
3.51465e-05
3.5474e-05
3.58045e-05
3.61357e-05
3.64644e-05
3.67993e-05
3.71328e-05
3.74719e-05
3.78095e-05
3.81465e-05
3.84882e-05
3.88296e-05
3.91757e-05
3.95211e-05
3.98653e-05
4.02145e-05
4.05632e-05
4.09169e-05
4.12696e-05
4.16213e-05
4.19779e-05
4.23341e-05
4.26952e-05
4.30553e-05
4.34144e-05
4.37784e-05
4.4142e-05
4.45105e-05
4.48781e-05
4.52446e-05
4.56161e-05
4.59871e-05
4.6363e-05
4.6738e-05
4.71119e-05
4.74909e-05
4.78693e-05
4.82527e-05
4.8635e-05
4.90165e-05
4.94027e-05
4.97888e-05
5.01794e-05
5.05694e-05
5.09579e-05
5.13521e-05
5.17449e-05
5.21437e-05
5.25402e-05
5.29373e-05
5.33374e-05
5.37395e-05
5.41435e-05
5.45505e-05
5.49582e-05
5.53634e-05
5.57748e-05
5.61847e-05
5.66004e-05
5.70145e-05
5.7428e-05
5.78461e-05
5.8264e-05
5.86867e-05
5.91085e-05
5.95292e-05
5.99549e-05
6.03801e-05
6.08103e-05
6.12394e-05
6.16676e-05
6.21007e-05
6.25334e-05
6.2971e-05
6.34076e-05
6.38432e-05
6.42837e-05
6.47238e-05
6.51688e-05
6.56129e-05
6.60558e-05
6.65039e-05
6.69513e-05
6.74038e-05
6.78552e-05
6.83057e-05
6.8761e-05
6.92161e-05
6.96758e-05
7.01349e-05
7.05924e-05
7.10557e-05
7.15175e-05
7.19854e-05
7.2451e-05
7.29172e-05
7.33863e-05
7.38575e-05
7.43306e-05
7.48066e-05
7.52833e-05
7.57577e-05
7.62381e-05
7.67171e-05
7.72018e-05
7.7685e-05
7.81675e-05
7.86547e-05
7.91417e-05
7.96334e-05
8.01243e-05
8.0614e-05
8.11089e-05
8.16031e-05
8.21024e-05
8.26006e-05
8.30978e-05
8.36e-05
8.41017e-05
8.46084e-05
8.5114e-05
8.56187e-05
8.61283e-05
8.66374e-05
8.71515e-05
8.76646e-05
8.81767e-05
8.86937e-05
8.92103e-05
8.97318e-05
9.02523e-05
9.07718e-05
9.12963e-05
9.18202e-05
9.23492e-05
9.28771e-05
9.34041e-05
9.39359e-05
9.44675e-05
9.50036e-05
9.55392e-05
9.60733e-05
9.6613e-05
9.71513e-05
9.76957e-05
9.82378e-05
9.87805e-05
9.93261e-05
9.98737e-05
0.000100423
0.000100976
0.000101529
0.00010208
0.000102637
0.000103192
0.000103754
0.000104313
0.000104872
0.000105436
0.000105999
0.000106568
0.000107135
0.000107701
0.000108272
0.000108843
0.000109419
0.000109994
0.000110567
0.000111146
0.000111724
0.000112307
0.00011289
0.000113471
0.000114057
0.000114642
0.000115233
0.000115823
0.000116411
0.000117005
0.000117598
0.000118196
0.000118793
0.000119389
0.00011999
0.00012059
0.000121195
0.0001218
0.000122403
0.000123012
0.000123619
0.000124233
0.000124844
0.000125456
0.00012607
0.000126687
0.000127306
0.000127927
0.00012855
0.00012917
0.000129795
0.00013042
0.00013105
0.000131679
0.000132307
0.00013294
0.000133572
0.00013421
0.000134846
0.000135481
0.000136122
0.000136762
0.000137406
0.00013805
0.000138693
0.000139341
0.000139988
0.00014064
0.000141291
0.000141942
0.000142597
0.000143251
0.000143911
0.00014457
0.000145227
0.00014589
0.000146552
0.000147219
0.000147885
0.00014855
0.00014922
0.00014989
0.000150564
0.000151238
0.00015191
0.000152588
0.000153265
0.000153946
0.000154628
0.000155307
0.000155992
0.000156676
0.000157366
0.000158054
0.000158742
0.000159433
0.000160126
0.000160822
0.00016152
0.000162218
0.000162915
0.000163617
0.000164318
0.000165025
0.00016573
0.000166435
0.000167144
0.000167853
0.000168567
0.00016928
0.000169992
0.000170708
0.000171425
0.000172146
0.000172866
0.000173586
0.00017431
0.000175034
0.000175762
0.00017649
0.000177217
0.000177948
0.000178679
0.000179416
0.000180151
0.000180885
0.000181624
0.000182363
0.000183106
0.000183849
0.00018459
0.000185337
0.000186083
0.000186834
0.000187584
0.000188332
0.000189087
0.00018984
0.000190599
0.000191355
0.000192113
0.000192873
0.000193635
0.000194399
0.000195167
0.000195934
0.0001967
0.000197471
0.000198241
0.000199017
0.000199792
0.000200565
0.000201344
0.000202122
0.000202904
0.000203686
0.000204467
0.000205253
0.000206038
0.000206829
0.000207618
0.000208407
0.0002092
0.000209993
0.00021079
0.000211587
0.000212383
0.000213184
0.000213984
0.000214789
0.000215593
0.000216396
0.000217205
0.000218012
0.000218825
0.000219636
0.000220447
0.000221263
0.000222078
0.000222898
0.000223717
0.000224535
0.000225358
0.00022618
0.000227008
0.000227834
0.00022866
0.00022949
0.00023032
0.000231155
0.000231989
0.000232822
0.000233659
0.000234498
0.000235338
0.000236182
0.000237026
0.000237868
0.000238716
0.000239563
0.000240415
0.000241266
0.000242116
0.000242971
0.000243825
0.000244685
0.000245543
0.000246401
0.000247263
0.000248125
0.000248992
0.000249858
0.000250722
0.000251592
0.000252461
0.000253336
0.000254209
0.000255081
0.000255958
0.000256835
0.000257717
0.000258597
0.000259477
0.000260362
0.000261246
0.000262135
0.000263023
0.00026391
0.000264802
0.000265694
0.00026659
0.000267486
0.00026838
0.00026928
0.000270179
0.000271083
0.000271985
0.000272888
0.000273794
0.000274702
0.000275612
0.000276524
0.000277438
0.000278349
0.000279266
0.000280181
0.000281103
0.000282023
0.000282942
0.000283866
0.000284789
0.000285718
0.000286645
0.000287572
0.000288503
0.000289434
0.00029037
0.000291305
0.000292239
0.000293177
0.000294116
0.000295059
0.000296001
0.000296943
0.000297889
0.000298835
0.000299786
0.000300735
0.000301684
0.000302638
0.000303591
0.000304549
0.000305506
0.000306462
0.000307424
0.000308384
0.00030935
0.000310314
0.000311278
0.000312246
0.000313215
0.000314188
0.00031516
0.00031613
0.000317107
0.000318082
0.000319063
0.000320042
0.000321021
0.000322003
0.000322988
0.000323974
0.000324963
0.000325953
0.00032694
0.000327934
0.000328926
0.000329924
0.00033092
0.000331916
0.000332916
0.000333916
0.000334921
0.000335925
0.000336928
0.000337936
0.000338943
0.000339956
0.000340967
0.000341978
0.000342993
0.000344008
0.000345028
0.000346046
0.000347064
0.000348087
0.000349109
0.000350136
0.000351163
0.000352188
0.000353218
0.000354248
0.000355282
0.000356316
0.000357349
0.000358386
0.000359424
0.000360465
0.000361507
0.000362547
0.000363592
0.000364636
0.000365686
0.000366734
0.000367782
0.000368834
0.000369887
0.000370942
0.000372001
0.00037306
0.000374116
0.000375179
0.00037624
0.000377307
0.000378372
0.000379437
0.000380506
0.000381576
0.000382649
0.000383723
0.000384794
0.000385871
0.000386948
0.000388029
0.00038911
0.000390189
0.000391274
0.000392358
0.000393446
0.000394534
0.000395621
0.000396713
0.000397804
0.000398901
0.000399996
0.00040109
0.000402189
0.000403288
0.000404392
0.000405495
0.000406596
0.000407703
0.000408809
0.00040992
0.00041103
0.00041214
0.000413254
0.000414367
0.000415486
0.000416604
0.00041772
0.000418842
0.000419962
0.000421089
0.000422213
0.000423338
0.000424466
0.000425596
0.000426728
0.000427862
0.000428998
0.000430131
0.00043127
0.000432408
0.000433551
0.000434693
0.000435834
0.00043698
0.000438126
0.000439276
0.000440426
0.000441574
0.000442728
0.000443881
0.000445038
0.000446195
0.000447351
0.000448512
0.000449673
0.000450838
0.000452002
0.000453166
0.000454334
0.000455502
0.000456675
0.000457846
0.000459017
0.000460193
0.000461368
0.000462548
0.000463728
0.000464906
0.000466089
0.000467272
0.000468459
0.000469646
0.000470831
0.000472022
0.000473212
0.000474408
0.000475601
0.000476795
0.000477992
0.000479191
0.000480392
0.000481595
0.0004828
0.000484002
0.00048521
0.000486417
0.000487629
0.00048884
0.000490051
0.000491265
0.00049248
0.0004937
0.000494918
0.000496136
0.000497358
0.00049858
0.000499807
0.000501033
0.000502258
0.000503488
0.000504718
0.000505952
0.000507186
0.000508418
0.000509655
0.000510892
0.000512134
0.000513375
0.000514615
0.00051586
0.000517104
0.000518353
0.000519601
0.000520849
0.000522101
0.000523353
0.000524609
0.000525865
0.00052712
0.000528379
0.000529639
0.000530903
0.000532166
0.000533428
0.000534695
0.000535961
0.000537234
0.000538503
0.000539774
0.000541047
0.000542323
0.0005436
0.00054488
0.000546161
0.00054744
0.000548724
0.000550008
0.000551297
0.000552584
0.000553871
0.000555162
0.000556453
0.000557749
0.000559045
0.000560339
0.000561638
0.000562936
0.00056424
0.000565542
0.000566844
0.00056815
0.000569456
0.000570767
0.000572077
0.000573386
0.0005747
0.000576013
0.000577331
0.000578649
0.000579965
0.000581286
0.000582607
0.000583933
0.000585257
0.000586581
0.00058791
0.000589238
0.000590571
0.000591904
0.000593235
0.000594571
0.000595906
0.000597247
0.000598586
0.000599926
0.000601268
0.000602613
0.000603959
0.000605309
0.000606659
0.000608006
0.00060936
0.000610712
0.00061207
0.000613427
0.000614783
0.000616143
0.000617503
0.000618868
0.000620233
0.000621596
0.000622964
0.000624331
0.000625704
0.000627075
0.000628446
0.000629821
0.000631196
0.000632576
0.000633955
0.000635333
0.000636716
0.000638099
0.000639486
0.000640873
0.000642258
0.000643648
0.000645038
0.000646433
0.000647827
0.00064922
0.000650617
0.000652015
0.000653417
0.000654818
0.000656218
0.000657623
0.000659028
0.000660438
0.000661847
0.000663254
0.000664667
0.000666079
0.000667496
0.000668912
0.000670328
0.000671747
0.000673168
0.000674591
0.000676016
0.000677443
0.000678867
0.000680297
0.000681726
0.000683161
0.000684594
0.000686026
0.000687463
0.0006889
0.000690341
0.000691782
0.000693221
0.000694666
0.00069611
0.000697559
0.000699007
0.000700454
0.000701906
0.000703358
0.000704814
0.00070627
0.000707724
0.000709183
0.000710642
0.000712106
0.000713569
0.000715031
0.000716498
0.000717964
0.000719436
0.000720906
0.000722375
0.000723849
0.000725323
0.000726802
0.00072828
0.000729756
0.000731238
0.000732719
0.000734206
0.00073569
0.000737175
0.000738663
0.000740153
0.000741645
0.00074314
0.000744636
0.000746129
0.000747628
0.000749126
0.00075063
0.000752132
0.000753633
0.000755139
0.000756645
0.000758155
0.000759665
0.000761174
0.000762688
0.000764201
0.000765719
0.000767236
0.000768752
0.000770273
0.000771794
0.000773319
0.000774844
0.000776367
0.000777896
0.000779424
0.000780957
0.000782488
0.000784019
0.000785555
0.000787091
0.000788631
0.00079017
0.000791709
0.000793252
0.000794795
0.000796343
0.00079789
0.000799435
0.000800986
0.000802536
0.000804091
0.000805646
0.000807199
0.000808757
0.000810315
0.000811878
0.000813439
0.000815
0.000816565
0.000818131
0.0008197
0.000821271
0.000822843
0.000824413
0.000825989
0.000827563
0.000829143
0.000830722
0.0008323
0.000833882
0.000835464
0.000837051
0.000838638
0.000840223
0.000841813
0.000843402
0.000844997
0.000846591
0.000848183
0.000849781
0.000851378
0.00085298
0.000854581
0.000856181
0.000857786
0.00085939
0.000861
0.000862608
0.000864216
0.000865828
0.00086744
0.000869057
0.000870673
0.000872288
0.000873907
0.000875527
0.000877151
0.000878774
0.000880396
0.000882024
0.00088365
0.000885283
0.000886912
0.000888543
0.000890177
0.000891812
0.00089345
0.00089509
0.000896731
0.00089837
0.000900015
0.000901658
0.000903307
0.000904955
0.000906602
0.000908254
0.000909905
0.000911561
0.000913216
0.00091487
0.00091653
0.000918188
0.000919852
0.000921515
0.000923176
0.000924843
0.000926509
0.00092818
0.00092985
0.000931519
0.000933193
0.000934867
0.000936545
0.000938223
0.000939899
0.000941581
0.000943262
0.000944948
0.000946633
0.000948316
0.000950005
0.000951694
0.000953387
0.000955079
0.000956771
0.000958467
0.000960163
0.000961864
0.000963564
0.000965262
0.000966966
0.000968669
0.000970378
0.000972084
0.000973791
0.000975501
0.000977213
0.000978927
0.000980644
0.000982362
0.000984077
0.000985798
0.000987518
0.000989244
0.000990968
0.000992691
0.00099442
0.000996147
0.00099788
0.000999612
0.00100134
0.00100308
0.00100481
0.00100655
0.00100829
0.00101003
0.00101177
0.00101352
0.00101526
0.00101701
0.00101876
0.00102051
0.00102226
0.00102401
0.00102577
0.00102752
0.00102928
0.00103103
0.0010328
0.00103456
0.00103632
0.00103808
0.00103985
0.00104162
0.00104339
0.00104515
0.00104693
0.0010487
0.00105048
0.00105225
0.00105403
0.00105581
0.00105759
0.00105937
0.00106116
0.00106295
0.00106473
0.00106652
0.00106831
0.0010701
0.0010719
0.00107369
0.00107549
0.00107728
0.00107908
0.00108089
0.00108269
0.00108449
0.00108629
0.0010881
0.00108991
0.00109172
0.00109353
0.00109534
0.00109716
0.00109898
0.00110079
0.00110261
0.00110443
0.00110625
0.00110808
0.0011099
0.00111172
0.00111355
0.00111538
0.00111721
0.00111904
0.00112088
0.00112271
0.00112455
0.00112639
0.00112822
0.00113007
0.00113191
0.00113375
0.0011356
0.00113744
0.00113929
0.00114114
0.001143
0.00114485
0.0011467
0.00114856
0.00115041
0.00115227
0.00115414
0.001156
0.00115786
0.00115973
0.00116159
0.00116346
0.00116533
0.0011672
0.00116908
0.00117095
0.00117283
0.0011747
0.00117658
0.00117846
0.00118034
0.00118223
0.00118411
0.001186
0.00118789
0.00118977
0.00119167
0.00119356
0.00119545
0.00119735
0.00119924
0.00120114
0.00120304
0.00120494
0.00120684
0.00120875
0.00121065
0.00121256
0.00121447
0.00121638
0.00121829
0.0012202
0.00122212
0.00122403
0.00122595
0.00122787
0.00122979
0.00123171
0.00123363
0.00123556
0.00123749
0.00123941
0.00124135
0.00124328
0.00124521
0.00124714
0.00124908
0.00125102
0.00125296
0.00125489
0.00125684
0.00125878
0.00126073
0.00126267
0.00126462
0.00126657
0.00126852
0.00127047
0.00127243
0.00127438
0.00127634
0.0012783
0.00128026
0.00128222
0.00128418
0.00128614
0.00128811
0.00129008
0.00129205
0.00129401
0.00129599
0.00129796
0.00129994
0.00130191
0.00130389
0.00130587
0.00130785
0.00130983
0.00131181
0.0013138
0.00131578
0.00131777
0.00131976
0.00132175
0.00132374
0.00132574
0.00132773
0.00132973
0.00133173
0.00133373
0.00133573
0.00133773
0.00133974
0.00134175
0.00134375
0.00134576
0.00134777
0.00134978
0.0013518
0.00135382
0.00135583
0.00135785
0.00135987
0.00136189
0.00136392
0.00136594
0.00136796
0.00136999
0.00137202
0.00137405
0.00137608
0.00137811
0.00138015
0.00138219
0.00138422
0.00138626
0.0013883
0.00139034
0.00139239
0.00139444
0.00139648
0.00139853
0.00140058
0.00140263
0.00140468
0.00140673
0.00140879
0.00141085
0.00141291
0.00141497
0.00141703
0.00141909
0.00142115
0.00142322
0.00142529
0.00142736
0.00142943
0.0014315
0.00143357
0.00143565
0.00143773
0.0014398
0.00144189
0.00144397
0.00144605
0.00144814
0.00145022
0.00145231
0.00145439
0.00145649
0.00145858
0.00146067
0.00146277
0.00146486
0.00146696
0.00146906
0.00147116
0.00147326
0.00147537
0.00147747
0.00147958
0.00148169
0.0014838
0.00148591
0.00148802
0.00149014
0.00149225
0.00149437
0.00149648
0.00149861
0.00150073
0.00150285
0.00150498
0.0015071
0.00150923
0.00151136
0.00151349
0.00151562
0.00151775
0.00151989
0.00152203
0.00152416
0.0015263
0.00152844
0.00153059
0.00153273
0.00153487
0.00153702
0.00153917
0.00154132
0.00154347
0.00154563
0.00154778
0.00154994
0.00155209
0.00155426
0.00155642
0.00155858
0.00156074
0.00156291
0.00156508
0.00156724
0.00156941
0.00157158
0.00157376
0.00157593
0.00157811
0.00158028
0.00158246
0.00158464
0.00158683
0.00158901
0.00159119
0.00159338
0.00159557
0.00159776
0.00159995
0.00160214
0.00160433
0.00160653
0.00160873
0.00161092
0.00161312
0.00161532
0.00161752
0.00161973
0.00162194
0.00162414
0.00162635
0.00162856
0.00163077
0.00163299
0.0016352
0.00163741
0.00163963
0.00164185
0.00164407
0.0016463
0.00164852
0.00165075
0.00165297
0.0016552
0.00165743
0.00165966
0.00166189
0.00166413
0.00166637
0.0016686
0.00167084
0.00167308
0.00167532
0.00167757
0.00167981
0.00168206
0.00168431
0.00168655
0.00168881
0.00169106
0.00169331
0.00169557
0.00169782
0.00170008
0.00170234
0.0017046
0.00170687
0.00170913
0.0017114
0.00171366
0.00171593
0.0017182
0.00172047
0.00172275
0.00172502
0.0017273
0.00172957
0.00173185
0.00173414
0.00173642
0.0017387
0.00174098
0.00174327
0.00174556
0.00174785
0.00175014
0.00175243
0.00175472
0.00175702
0.00175932
0.00176162
0.00176392
0.00176622
0.00176852
0.00177083
0.00177314
0.00177544
0.00177775
0.00178006
0.00178238
0.00178469
0.001787
0.00178932
0.00179164
0.00179396
0.00179628
0.0017986
0.00180093
0.00180325
0.00180558
0.00180791
0.00181024
0.00181257
0.00181491
0.00181724
0.00181958
0.00182191
0.00182425
0.00182659
0.00182894
0.00183128
0.00183362
0.00183597
0.00183832
0.00184067
0.00184302
0.00184537
0.00184773
0.00185008
0.00185244
0.0018548
0.00185716
0.00185952
0.00186188
0.00186425
0.00186661
0.00186898
0.00187135
0.00187372
0.00187609
0.00187847
0.00188084
0.00188322
0.0018856
0.00188798
0.00189036
0.00189274
0.00189513
0.00189751
0.0018999
0.00190229
0.00190468
0.00190707
0.00190946
0.00191186
0.00191426
0.00191665
0.00191905
0.00192145
0.00192385
0.00192626
0.00192867
0.00193107
0.00193348
0.00193589
0.0019383
0.00194071
0.00194313
0.00194554
0.00194796
0.00195038
0.0019528
0.00195522
0.00195764
0.00196007
0.00196249
0.00196492
0.00196735
0.00196978
0.00197221
0.00197465
0.00197708
0.00197952
0.00198195
0.00198439
0.00198684
0.00198928
0.00199173
0.00199417
0.00199662
0.00199907
0.00200152
0.00200397
0.00200642
0.00200888
0.00201133
0.00201379
0.00201625
0.00201871
0.00202118
0.00202364
0.00202611
0.00202857
0.00203104
0.00203351
0.00203598
0.00203846
0.00204093
0.0020434
0.00204588
0.00204836
0.00205084
0.00205332
0.0020558
0.00205829
0.00206078
0.00206327
0.00206575
0.00206824
0.00207074
0.00207323
0.00207573
0.00207822
0.00208072
0.00208322
0.00208572
0.00208822
0.00209073
0.00209323
0.00209574
0.00209825
0.00210076
0.00210327
0.00210578
0.0021083
0.00211081
0.00211333
0.00211585
0.00211837
0.00212089
0.00212342
0.00212594
0.00212847
0.002131
0.00213353
0.00213606
0.00213859
0.00214113
0.00214367
0.0021462
0.00214874
0.00215128
0.00215382
0.00215637
0.00215891
0.00216146
0.002164
0.00216656
0.00216911
0.00217166
0.00217421
0.00217676
0.00217932
0.00218188
0.00218444
0.002187
0.00218956
0.00219213
0.0021947
0.00219726
0.00219983
0.0022024
0.00220497
0.00220755
0.00221012
0.0022127
0.00221527
0.00221785
0.00222043
0.00222301
0.0022256
0.00222818
0.00223077
0.00223336
0.00223595
0.00223854
0.00224113
0.00224373
0.00224633
0.00224892
0.00225152
0.00225412
0.00225672
0.00225933
0.00226193
0.00226454
0.00226715
0.00226976
0.00227237
0.00227498
0.00227759
0.00228021
0.00228282
0.00228545
0.00228807
0.00229068
0.00229331
0.00229593
0.00229856
0.00230119
0.00230381
0.00230644
0.00230908
0.00231171
0.00231435
0.00231698
0.00231962
0.00232226
0.0023249
0.00232754
0.00233018
0.00233283
0.00233547
0.00233812
0.00234077
0.00234342
0.00234608
0.00234873
0.00235139
0.00235404
0.0023567
0.00235936
0.00236202
0.00236469
0.00236735
0.00237002
0.00237269
0.00237536
0.00237803
0.0023807
0.00238338
0.00238605
0.00238873
0.0023914
0.00239409
0.00239677
0.00239945
0.00240213
0.00240482
0.00240751
0.0024102
0.00241289
0.00241558
0.00241827
0.00242097
0.00242366
0.00242636
0.00242906
0.00243176
0.00243447
0.00243717
0.00243987
0.00244258
0.00244529
0.002448
0.00245071
0.00245342
0.00245614
0.00245885
0.00246157
0.00246429
0.00246701
0.00246973
0.00247245
0.00247518
0.0024779
0.00248063
0.00248336
0.00248609
0.00248882
0.00249156
0.00249429
0.00249703
0.00249977
0.00250251
0.00250525
0.00250799
0.00251074
0.00251348
0.00251623
0.00251898
0.00252173
0.00252448
0.00252724
0.00252999
0.00253275
0.00253551
0.00253826
0.00254103
0.00254379
0.00254655
0.00254932
0.00255208
0.00255485
0.00255762
0.0025604
0.00256317
0.00256594
0.00256872
0.00257149
0.00257427
0.00257706
0.00257983
0.00258262
0.0025854
0.00258819
0.00259098
0.00259377
0.00259656
0.00259935
0.00260214
0.00260494
0.00260773
0.00261053
0.00261333
0.00261613
0.00261894
0.00262174
0.00262454
0.00262735
0.00263016
0.00263297
0.00263579
0.0026386
0.00264141
0.00264423
0.00264705
0.00264987
0.00265269
0.00265551
0.00265833
0.00266116
0.00266399
0.00266682
0.00266965
0.00267248
0.00267531
0.00267815
0.00268098
0.00268382
0.00268666
0.0026895
0.00269234
0.00269518
0.00269803
0.00270087
0.00270372
0.00270657
0.00270942
0.00271228
0.00271513
0.00271799
0.00272084
0.0027237
0.00272656
0.00272942
0.00273228
0.00273515
0.00273801
0.00274088
0.00274375
0.00274662
0.00274949
0.00275236
0.00275524
0.00275811
0.00276099
0.00276387
0.00276676
0.00276963
0.00277252
0.0027754
0.00277829
0.00278118
0.00278407
0.00278696
0.00278986
0.00279275
0.00279565
0.00279854
0.00280144
0.00280434
0.00280725
0.00281015
0.00281305
0.00281596
0.00281887
0.00282178
0.00282469
0.0028276
0.00283052
0.00283343
0.00283635
0.00283927
0.00284219
0.00284511
0.00284803
0.00285096
0.00285388
0.00285681
0.00285974
0.00286267
0.0028656
0.00286853
0.00287147
0.0028744
0.00287734
0.00288028
0.00288322
0.00288616
0.00288911
0.00289205
0.002895
0.00289795
0.0029009
0.00290385
0.0029068
0.00290975
0.00291271
0.00291567
0.00291863
0.00292159
0.00292455
0.00292752
0.00293048
0.00293345
0.00293641
0.00293938
0.00294236
0.00294533
0.0029483
0.00295128
0.00295425
0.00295723
0.00296021
0.00296319
0.00296618
0.00296916
0.00297215
0.00297514
0.00297812
0.00298111
0.00298411
0.0029871
0.0029901
0.00299309
0.00299609
0.00299909
0.00300209
0.00300509
0.00300809
0.0030111
0.00301411
0.00301712
0.00302013
0.00302314
0.00302615
0.00302916
0.00303218
0.0030352
0.00303821
0.00304123
0.00304426
0.00304728
0.00305031
0.00305333
0.00305636
0.00305939
0.00306242
0.00306546
0.00306849
0.00307152
0.00307456
0.0030776
0.00308064
0.00308368
0.00308672
0.00308977
0.00309282
0.00309587
0.00309891
0.00310196
0.00310502
0.00310807
0.00311113
0.00311418
0.00311724
0.0031203
0.00312336
0.00312642
0.00312949
0.00313255
0.00313562
0.00313868
0.00314176
0.00314483
0.0031479
0.00315097
0.00315405
0.00315713
0.00316021
0.00316329
0.00316637
0.00316945
0.00317254
0.00317562
0.00317871
0.0031818
0.00318489
0.00318798
0.00319108
0.00319417
0.00319727
0.00320037
0.00320347
0.00320657
0.00320967
0.00321277
0.00321588
0.00321899
0.0032221
0.00322521
0.00322832
0.00323144
0.00323455
0.00323767
0.00324079
0.0032439
0.00324703
0.00325015
0.00325327
0.0032564
0.00325952
0.00326265
0.00326578
0.00326892
0.00327205
0.00327518
0.00327832
0.00328146
0.0032846
0.00328774
0.00329088
0.00329402
0.00329717
0.00330031
0.00330346
0.00330661
0.00330976
0.00331291
0.00331607
0.00331922
0.00332238
0.00332554
0.0033287
0.00333186
0.00333502
0.00333818
0.00334135
0.00334452
0.00334769
0.00335086
0.00335403
0.0033572
0.00336038
0.00336355
0.00336674
0.00336992
0.00337309
0.00337628
0.00337946
0.00338265
0.00338584
0.00338902
0.00339221
0.0033954
0.0033986
0.0034018
0.00340499
0.00340819
0.00341139
0.00341459
0.00341779
0.00342099
0.0034242
0.0034274
0.00343061
0.00343382
0.00343703
0.00344024
0.00344346
0.00344668
0.00344989
0.00345311
0.00345633
0.00345955
0.00346278
0.003466
0.00346922
0.00347245
0.00347568
0.00347891
0.00348214
0.00348537
0.00348861
0.00349184
0.00349509
0.00349832
0.00350156
0.00350481
0.00350805
0.0035113
0.00351454
0.00351779
0.00352104
0.00352429
0.00352755
0.0035308
0.00353406
0.00353732
0.00354058
0.00354383
0.0035471
0.00355036
0.00355363
0.00355689
0.00356016
0.00356343
0.0035667
0.00356997
0.00357325
0.00357652
0.0035798
0.00358308
0.00358636
0.00358964
0.00359292
0.00359621
0.0035995
0.00360278
0.00360607
0.00360936
0.00361266
0.00361595
0.00361924
0.00362254
0.00362584
0.00362914
0.00363244
0.00363574
0.00363904
0.00364235
0.00364566
0.00364896
0.00365227
0.00365558
0.0036589
0.00366221
0.00366553
0.00366885
0.00367216
0.00367549
0.00367881
0.00368213
0.00368546
0.00368878
0.00369211
0.00369544
0.00369878
0.00370211
0.00370544
0.00370878
0.00371211
0.00371545
0.00371879
0.00372213
0.00372548
0.00372882
0.00373217
0.00373552
0.00373886
0.00374222
0.00374557
0.00374892
0.00375228
0.00375563
0.00375899
0.00376235
0.00376571
0.00376908
0.00377244
0.0037758
0.00377917
0.00378254
0.00378591
0.00378928
0.00379265
0.00379603
0.0037994
0.00380278
0.00380616
0.00380954
0.00381292
0.00381631
0.00381969
0.00382307
0.00382646
0.00382985
0.00383324
0.00383664
0.00384003
0.00384343
0.00384682
0.00385022
0.00385362
0.00385703
0.00386043
0.00386383
0.00386724
0.00387065
0.00387406
0.00387747
0.00388088
0.00388429
0.00388771
0.00389113
0.00389454
0.00389796
0.00390138
0.00390481
0.00390823
0.00391165
0.00391508
0.00391851
0.00392194
0.00392537
0.0039288
0.00393224
0.00393568
0.00393912
0.00394255
0.00394599
0.00394943
0.00395288
0.00395632
0.00395977
0.00396322
0.00396667
0.00397012
0.00397357
0.00397702
0.00398048
0.00398394
0.00398739
0.00399085
0.00399432
0.00399778
0.00400124
0.00400471
0.00400818
0.00401165
0.00401512
0.00401859
0.00402207
0.00402554
0.00402902
0.0040325
0.00403598
0.00403946
0.00404294
0.00404643
0.00404991
0.0040534
0.00405689
0.00406038
0.00406387
0.00406736
0.00407085
0.00407435
0.00407785
0.00408135
0.00408485
0.00408835
0.00409185
0.00409536
0.00409887
0.00410238
0.00410588
0.00410939
0.00411291
0.00411642
0.00411994
0.00412345
0.00412697
0.00413049
0.00413401
0.00413754
0.00414106
0.00414459
0.00414811
0.00415164
0.00415517
0.0041587
0.00416224
0.00416577
0.00416931
0.00417285
0.00417639
0.00417993
0.00418347
0.00418702
0.00419056
0.00419411
0.00419766
0.00420121
0.00420476
0.00420832
0.00421187
0.00421542
0.00421898
0.00422254
0.0042261
0.00422967
0.00423323
0.00423679
0.00424036
0.00424393
0.0042475
0.00425107
0.00425464
0.00425822
0.00426179
0.00426537
0.00426895
0.00427253
0.00427611
0.00427969
0.00428328
0.00428686
0.00429045
0.00429404
0.00429763
0.00430122
0.00430481
0.00430841
0.004312
0.00431561
0.0043192
0.0043228
0.00432641
0.00433001
0.00433362
0.00433722
0.00434083
0.00434444
0.00434806
0.00435167
0.00435529
0.0043589
0.00436252
0.00436614
0.00436976
0.00437338
0.00437701
0.00438063
0.00438426
0.00438788
0.00439152
0.00439515
0.00439878
0.00440241
0.00440605
0.00440969
0.00441333
0.00441696
0.00442061
0.00442425
0.0044279
0.00443154
0.00443519
0.00443884
0.00444249
0.00444614
0.00444979
0.00445345
0.0044571
0.00446076
0.00446442
0.00446808
0.00447174
0.00447541
0.00447907
0.00448274
0.00448641
0.00449008
0.00449375
0.00449742
0.0045011
0.00450478
0.00450845
0.00451213
0.00451581
0.00451949
0.00452318
0.00452687
0.00453055
0.00453424
0.00453793
0.00454162
0.00454531
0.00454901
0.0045527
0.0045564
0.0045601
0.0045638
0.0045675
0.00457121
0.00457491
0.00457862
0.00458233
0.00458603
0.00458974
0.00459346
0.00459717
0.00460089
0.0046046
0.00460832
0.00461204
0.00461576
0.00461948
0.00462321
0.00462693
0.00463066
0.00463439
0.00463812
0.00464185
0.00464558
0.00464932
0.00465305
0.00465679
0.00466053
0.00466427
0.00466801
0.00467176
0.0046755
0.00467925
0.00468299
0.00468674
0.0046905
0.00469425
0.00469801
0.00470176
0.00470552
0.00470928
0.00471304
0.0047168
0.00472056
0.00472433
0.00472809
0.00473186
0.00473563
0.0047394
0.00474317
0.00474695
0.00475072
0.0047545
0.00475828
0.00476206
0.00476584
0.00476962
0.00477341
0.00477719
0.00478098
0.00478477
0.00478856
0.00479235
0.00479614
0.00479994
0.00480373
0.00480753
0.00481133
0.00481513
0.00481893
0.00482274
0.00482654
0.00483035
0.00483416
0.00483797
0.00484178
0.00484559
0.0048494
0.00485322
0.00485704
0.00486085
0.00486467
0.0048685
0.00487232
0.00487614
0.00487997
0.0048838
0.00488763
0.00489146
0.00489529
0.00489913
0.00490296
0.0049068
0.00491064
0.00491448
0.00491832
0.00492216
0.00492601
0.00492985
0.0049337