/*--------------------------------*- C++ -*----------------------------------*\
| =========                 |                                                 |
| \\      /  F ield         | OpenFOAM: The Open Source CFD Toolbox           |
|  \\    /   O peration     | Version:  2206                                  |
|   \\  /    A nd           | Website:  www.openfoam.com                      |
|    \\/     M anipulation  |                                                 |
\*---------------------------------------------------------------------------*/
FoamFile
{
    version     2.0;
    format      ascii;
    arch        "LSB;label=32;scalar=64";
    class       surfaceScalarField;
    location    "120";
    object      phi;
}
// * * * * * * * * * * * * * * * * * * * * * * * * * * * * * * * * * * * * * //

dimensions      [0 3 -1 0 0 0 0];

oriented        oriented;

internalField   nonuniform List<scalar> 
94990
(
-5.19953e-25
-2.53352e-24
-1.07537e-24
5.49292e-25
-2.08059e-24
1.00488e-24
-3.45915e-24
1.37497e-24
-5.27596e-24
1.8104e-24
-7.48766e-24
2.21358e-24
-1.00984e-23
2.60289e-24
-1.30941e-23
3.00034e-24
-1.65115e-23
3.411e-24
-2.0315e-23
3.80874e-24
-2.45269e-23
4.20714e-24
-2.91336e-23
4.61151e-24
-3.41475e-23
5.01011e-24
-3.95557e-23
5.41237e-24
-4.53707e-23
5.81194e-24
-5.15813e-23
6.21425e-24
-5.81974e-23
6.61363e-24
-6.52101e-23
7.01583e-24
-7.26277e-23
7.41549e-24
-8.04424e-23
7.81746e-24
-8.86615e-23
8.2173e-24
-9.72781e-23
8.61908e-24
-1.06299e-22
9.01911e-24
-1.15717e-22
9.42073e-24
-1.2554e-22
9.8209e-24
-1.3576e-22
1.02224e-23
-1.46384e-22
1.06227e-23
-1.57406e-22
1.10241e-23
-1.68832e-22
1.14245e-23
-1.80656e-22
1.18257e-23
-1.92883e-22
1.22262e-23
-2.05509e-22
1.26274e-23
-2.18538e-22
1.3028e-23
-2.31966e-22
1.34291e-23
-2.45796e-22
1.38297e-23
-2.60026e-22
1.42308e-23
-2.74658e-22
1.46315e-23
-2.89689e-22
1.50325e-23
-3.05123e-22
1.54332e-23
-3.20956e-22
1.58342e-23
-3.37192e-22
1.62349e-23
-3.53827e-22
1.6636e-23
-3.70864e-22
1.70367e-23
-3.88301e-22
1.74377e-23
-4.0614e-22
1.78384e-23
-4.24379e-22
1.82394e-23
-4.43019e-22
1.86402e-23
-4.6206e-22
1.90411e-23
-4.81502e-22
1.94419e-23
-5.01344e-22
1.98428e-23
-5.21588e-22
2.02436e-23
-5.42232e-22
2.06446e-23
-5.63278e-22
2.10454e-23
-5.84723e-22
2.14463e-23
-6.06571e-22
2.18471e-23
-6.28818e-22
2.2248e-23
-6.51467e-22
2.26488e-23
-6.74517e-22
2.30497e-23
-6.97968e-22
2.34506e-23
-7.21819e-22
2.38515e-23
-7.46071e-22
2.42523e-23
-7.70724e-22
2.46532e-23
-7.95778e-22
2.5054e-23
-8.21233e-22
2.54549e-23
-8.47089e-22
2.58558e-23
-8.73345e-22
2.62567e-23
-9.00003e-22
2.66575e-23
-9.27061e-22
2.70584e-23
-9.5452e-22
2.74592e-23
-9.8238e-22
2.78601e-23
-1.01064e-21
2.82609e-23
-1.0393e-21
2.86619e-23
-1.06837e-21
2.90627e-23
-1.09783e-21
2.94636e-23
-1.12769e-21
2.98644e-23
-1.15796e-21
3.02653e-23
-1.18862e-21
3.06661e-23
-1.21969e-21
3.1067e-23
-1.25116e-21
3.14679e-23
-1.28303e-21
3.18688e-23
-1.3153e-21
3.22696e-23
-1.34797e-21
3.26705e-23
-1.38104e-21
3.30713e-23
-1.41451e-21
3.34722e-23
-1.44838e-21
3.38731e-23
-1.48266e-21
3.4274e-23
-1.51733e-21
3.46748e-23
-1.55241e-21
3.50757e-23
-1.58789e-21
3.54765e-23
-1.62376e-21
3.58774e-23
-1.66004e-21
3.62783e-23
-1.69672e-21
3.66792e-23
-1.7338e-21
3.708e-23
-1.77128e-21
3.74809e-23
-1.80916e-21
3.78817e-23
-1.84744e-21
3.82826e-23
-1.88613e-21
3.86834e-23
-1.92521e-21
3.90843e-23
-1.9647e-21
3.94852e-23
-2.00458e-21
3.98861e-23
-2.04487e-21
4.02869e-23
-2.08556e-21
4.06878e-23
-2.12665e-21
4.10886e-23
-2.16814e-21
4.14895e-23
-2.21003e-21
4.18904e-23
-2.25232e-21
4.22913e-23
-2.29501e-21
4.26921e-23
-2.3381e-21
4.3093e-23
-2.3816e-21
4.34938e-23
-2.42549e-21
4.38947e-23
-2.46979e-21
4.42956e-23
-2.51448e-21
4.46965e-23
-2.55958e-21
4.50973e-23
-2.60508e-21
4.54982e-23
-2.65098e-21
4.5899e-23
-2.69728e-21
4.62999e-23
-2.74398e-21
4.67008e-23
-2.79108e-21
4.71017e-23
-2.83858e-21
4.75025e-23
-2.88649e-21
4.79034e-23
-2.93479e-21
4.83042e-23
-2.98349e-21
4.87051e-23
-3.0326e-21
4.91059e-23
-3.08211e-21
4.95068e-23
-3.13202e-21
4.99077e-23
-3.18232e-21
5.03086e-23
-3.23303e-21
5.07094e-23
-3.28414e-21
5.11103e-23
-3.33565e-21
5.15111e-23
-3.38757e-21
5.1912e-23
-3.43988e-21
5.23129e-23
-3.49259e-21
5.27138e-23
-3.54571e-21
5.31146e-23
-3.59922e-21
5.35155e-23
-3.65314e-21
5.39163e-23
-3.70746e-21
5.43172e-23
-3.76217e-21
5.47181e-23
-3.81729e-21
5.5119e-23
-3.87281e-21
5.55198e-23
-3.92873e-21
5.59207e-23
-3.98506e-21
5.63215e-23
-4.04178e-21
5.67224e-23
-4.0989e-21
5.71233e-23
-4.15642e-21
5.75242e-23
-4.21435e-21
5.7925e-23
-4.27268e-21
5.83259e-23
-4.3314e-21
5.87267e-23
-4.39053e-21
5.91276e-23
-4.45006e-21
5.95284e-23
-4.50999e-21
5.99293e-23
-4.57032e-21
6.03302e-23
-4.63105e-21
6.07311e-23
-4.69218e-21
6.11319e-23
-4.75371e-21
6.15328e-23
-4.81565e-21
6.19336e-23
-4.87798e-21
6.23345e-23
-4.94072e-21
6.27354e-23
-5.00385e-21
6.31363e-23
-5.06739e-21
6.35371e-23
-5.13133e-21
6.3938e-23
-5.19567e-21
6.43388e-23
-5.26041e-21
6.47397e-23
-5.32555e-21
6.51406e-23
-5.39109e-21
6.55415e-23
-5.45703e-21
6.59423e-23
-5.52337e-21
6.63432e-23
-5.59012e-21
6.6744e-23
-5.65726e-21
6.71449e-23
-5.72481e-21
6.75458e-23
-5.79275e-21
6.79466e-23
-5.8611e-21
6.83475e-23
-5.92985e-21
6.87484e-23
-5.999e-21
6.91492e-23
-6.06855e-21
6.95501e-23
-6.1385e-21
6.9951e-23
-6.20885e-21
7.03518e-23
-6.2796e-21
7.07527e-23
-6.35076e-21
7.11536e-23
-6.42231e-21
7.15544e-23
-6.49427e-21
7.19553e-23
-6.56662e-21
7.23561e-23
-6.63938e-21
7.2757e-23
-6.71254e-21
7.31579e-23
-6.7861e-21
7.35587e-23
-6.86006e-21
7.39596e-23
-6.93442e-21
7.43605e-23
-7.00918e-21
7.47613e-23
-7.08434e-21
7.51622e-23
-7.1599e-21
7.55631e-23
-7.23587e-21
7.59639e-23
-7.31223e-21
7.63648e-23
-7.389e-21
7.67657e-23
-7.46616e-21
7.71665e-23
-7.54373e-21
7.75674e-23
-7.6217e-21
7.79683e-23
-7.70007e-21
7.83691e-23
-7.77884e-21
7.877e-23
-7.85801e-21
7.91709e-23
-7.93758e-21
7.95717e-23
-8.01755e-21
7.99726e-23
-8.09793e-21
8.03735e-23
-8.1787e-21
8.07743e-23
-8.25988e-21
8.11752e-23
-8.34145e-21
8.1576e-23
-8.42343e-21
8.19769e-23
-8.50581e-21
8.23778e-23
-8.58859e-21
8.27787e-23
-8.67176e-21
8.31795e-23
-8.75535e-21
8.35804e-23
-8.83933e-21
8.39812e-23
-8.92371e-21
8.43821e-23
-9.00849e-21
8.4783e-23
-9.09367e-21
8.51839e-23
-9.17926e-21
8.55847e-23
-9.26525e-21
8.59856e-23
-9.35163e-21
8.63864e-23
-9.43842e-21
8.67873e-23
-9.52561e-21
8.71882e-23
-9.6132e-21
8.7589e-23
-9.70119e-21
8.79899e-23
-9.78958e-21
8.83908e-23
-9.87837e-21
8.87916e-23
-9.96756e-21
8.91925e-23
-1.00572e-20
8.95933e-23
-1.01471e-20
8.99942e-23
-1.02375e-20
9.03951e-23
-1.03283e-20
9.0796e-23
-1.04195e-20
9.11968e-23
-1.05111e-20
9.15977e-23
-1.06031e-20
9.19985e-23
-1.06955e-20
9.23994e-23
-1.07883e-20
9.28003e-23
-1.08815e-20
9.32012e-23
-1.09751e-20
9.3602e-23
-1.10691e-20
9.40029e-23
-1.11635e-20
9.44037e-23
-1.12583e-20
9.48046e-23
-1.13536e-20
9.52054e-23
-1.14492e-20
9.56064e-23
-1.15452e-20
9.60072e-23
-1.16416e-20
9.64081e-23
-1.17384e-20
9.68089e-23
-1.18356e-20
9.72098e-23
-1.19332e-20
9.76106e-23
-1.20312e-20
9.80116e-23
-1.21296e-20
9.84124e-23
-1.22284e-20
9.88133e-23
-1.23277e-20
9.92141e-23
-1.24273e-20
9.9615e-23
-1.25273e-20
1.00016e-22
-1.26277e-20
1.00417e-22
-1.27285e-20
1.00818e-22
-1.28297e-20
1.01218e-22
-1.29314e-20
1.01619e-22
-1.30334e-20
1.0202e-22
-1.31358e-20
1.02421e-22
-1.32386e-20
1.02822e-22
-1.33418e-20
1.03223e-22
-1.34455e-20
1.03624e-22
-1.35495e-20
1.04024e-22
-1.36539e-20
1.04425e-22
-1.37587e-20
1.04826e-22
-1.3864e-20
1.05227e-22
-1.39696e-20
1.05628e-22
-1.40756e-20
1.06029e-22
-1.41821e-20
1.0643e-22
-1.42889e-20
1.06831e-22
-1.43961e-20
1.07231e-22
-1.45037e-20
1.07632e-22
-1.46118e-20
1.08033e-22
-1.47202e-20
1.08434e-22
-1.4829e-20
1.08835e-22
-1.49383e-20
1.09236e-22
-1.50479e-20
1.09637e-22
-1.5158e-20
1.10038e-22
-1.52684e-20
1.10438e-22
-1.53792e-20
1.10839e-22
-1.54905e-20
1.1124e-22
-1.56021e-20
1.11641e-22
-1.57142e-20
1.12042e-22
-1.58266e-20
1.12443e-22
-1.59394e-20
1.12843e-22
-1.60527e-20
1.13244e-22
-1.61663e-20
1.13645e-22
-1.62804e-20
1.14046e-22
-1.63948e-20
1.14447e-22
-1.65097e-20
1.14848e-22
-1.66249e-20
1.15249e-22
-1.67406e-20
1.1565e-22
-1.68566e-20
1.1605e-22
-1.69731e-20
1.16451e-22
-1.70899e-20
1.16852e-22
-1.72072e-20
1.17253e-22
-1.73248e-20
1.17654e-22
-1.74429e-20
1.18055e-22
-1.75613e-20
1.18456e-22
-1.76802e-20
1.18857e-22
-1.77995e-20
1.19257e-22
-1.79191e-20
1.19658e-22
-1.80392e-20
1.20059e-22
-1.81596e-20
1.2046e-22
-1.82805e-20
1.20861e-22
-1.84018e-20
1.21262e-22
-1.85234e-20
1.21663e-22
-1.86455e-20
1.22064e-22
-1.87679e-20
1.22464e-22
-1.88908e-20
1.22865e-22
-1.90141e-20
1.23266e-22
-1.91377e-20
1.23667e-22
-1.92618e-20
1.24068e-22
-1.93863e-20
1.24469e-22
-1.95111e-20
1.24869e-22
-1.96364e-20
1.2527e-22
-1.97621e-20
1.25671e-22
-1.98882e-20
1.26072e-22
-2.00146e-20
1.26473e-22
-2.01415e-20
1.26874e-22
-2.02688e-20
1.27275e-22
-2.03965e-20
1.27676e-22
-2.05245e-20
1.28076e-22
-2.0653e-20
1.28477e-22
-2.07819e-20
1.28878e-22
-2.09112e-20
1.29279e-22
-2.10408e-20
1.2968e-22
-2.11709e-20
1.30081e-22
-2.13014e-20
1.30482e-22
-2.14323e-20
1.30883e-22
-2.15636e-20
1.31283e-22
-2.16953e-20
1.31684e-22
-2.18273e-20
1.32085e-22
-2.19598e-20
1.32486e-22
-2.20927e-20
1.32887e-22
-2.2226e-20
1.33288e-22
-2.23597e-20
1.33688e-22
-2.24938e-20
1.34089e-22
-2.26283e-20
1.3449e-22
-2.27632e-20
1.34891e-22
-2.28985e-20
1.35292e-22
-2.30341e-20
1.35693e-22
-2.31702e-20
1.36094e-22
-2.33067e-20
1.36495e-22
-2.34436e-20
1.36895e-22
-2.35809e-20
1.37296e-22
-2.37186e-20
1.37697e-22
-2.38567e-20
1.38098e-22
-2.39952e-20
1.38499e-22
-2.41341e-20
1.389e-22
-2.42734e-20
1.39301e-22
-2.44131e-20
1.39702e-22
-2.45532e-20
1.40102e-22
-2.46937e-20
1.40503e-22
-2.48346e-20
1.40904e-22
-2.49759e-20
1.41305e-22
-2.51176e-20
1.41706e-22
-2.52598e-20
1.42107e-22
-2.54023e-20
1.42507e-22
-2.55452e-20
1.42909e-22
-2.56885e-20
1.43309e-22
-2.58322e-20
1.4371e-22
-2.59763e-20
1.44111e-22
-2.61208e-20
1.44512e-22
-2.62657e-20
1.44913e-22
-2.6411e-20
1.45314e-22
-2.65567e-20
1.45714e-22
-2.67029e-20
1.46115e-22
-2.68494e-20
1.46516e-22
-2.69963e-20
1.46917e-22
-2.71436e-20
1.47318e-22
-2.72913e-20
1.47719e-22
-2.74395e-20
1.4812e-22
-2.7588e-20
1.48521e-22
-2.77369e-20
1.48921e-22
-2.78862e-20
1.49322e-22
-2.80359e-20
1.49723e-22
-2.81861e-20
1.50124e-22
-2.83366e-20
1.50525e-22
-2.84875e-20
1.50926e-22
-2.86388e-20
1.51326e-22
-2.87906e-20
1.51728e-22
-2.89427e-20
1.52128e-22
-2.90952e-20
1.52529e-22
-2.92482e-20
1.5293e-22
-2.94015e-20
1.53331e-22
-2.95552e-20
1.53732e-22
-2.97093e-20
1.54133e-22
-2.98639e-20
1.54533e-22
-3.00188e-20
1.54935e-22
-3.01742e-20
1.55335e-22
-3.03299e-20
1.55736e-22
-3.0486e-20
1.56137e-22
-3.06426e-20
1.56538e-22
-3.07995e-20
1.56939e-22
-3.09568e-20
1.5734e-22
-3.11146e-20
1.5774e-22
-3.12727e-20
1.58141e-22
-3.14313e-20
1.58542e-22
-3.15902e-20
1.58943e-22
-3.17496e-20
1.59344e-22
-3.19093e-20
1.59745e-22
-3.20694e-20
1.60145e-22
-3.223e-20
1.60547e-22
-3.23909e-20
1.60947e-22
-3.25523e-20
1.61348e-22
-3.2714e-20
1.61749e-22
-3.28762e-20
1.6215e-22
-3.30387e-20
1.62551e-22
-3.32017e-20
1.62952e-22
-3.3365e-20
1.63352e-22
-3.35288e-20
1.63754e-22
-3.36929e-20
1.64154e-22
-3.38575e-20
1.64555e-22
-3.40225e-20
1.64956e-22
-3.41878e-20
1.65357e-22
-3.43536e-20
1.65758e-22
-3.45197e-20
1.66159e-22
-3.46863e-20
1.66559e-22
-3.48532e-20
1.6696e-22
-3.50206e-20
1.67361e-22
-3.51884e-20
1.67762e-22
-3.53565e-20
1.68163e-22
-3.55251e-20
1.68564e-22
-3.56941e-20
1.68965e-22
-3.58634e-20
1.69366e-22
-3.60332e-20
1.69766e-22
-3.62034e-20
1.70167e-22
-3.63739e-20
1.70568e-22
-3.65449e-20
1.70969e-22
-3.67163e-20
1.7137e-22
-3.6888e-20
1.71771e-22
-3.70602e-20
1.72171e-22
-3.72328e-20
1.72573e-22
-3.74058e-20
1.72973e-22
-3.75791e-20
1.73374e-22
-3.77529e-20
1.73775e-22
-3.79271e-20
1.74176e-22
-3.81017e-20
1.74577e-22
-3.82766e-20
1.74978e-22
-3.8452e-20
1.75378e-22
-3.86278e-20
1.7578e-22
-3.8804e-20
1.7618e-22
-3.89806e-20
1.76581e-22
-3.91575e-20
1.76982e-22
-3.93349e-20
1.77383e-22
-3.95127e-20
1.77784e-22
-3.96909e-20
1.78185e-22
-3.98695e-20
1.78585e-22
-4.00485e-20
1.78986e-22
-4.02278e-20
1.79387e-22
-4.04076e-20
1.79788e-22
-4.05878e-20
1.80189e-22
-4.07684e-20
1.8059e-22
-4.09494e-20
1.8099e-22
-4.11308e-20
1.81392e-22
-4.13126e-20
1.81792e-22
-4.14948e-20
1.82193e-22
-4.16774e-20
1.82594e-22
-4.18604e-20
1.82995e-22
-4.20438e-20
1.83396e-22
-4.22276e-20
1.83797e-22
-4.24118e-20
1.84197e-22
-4.25964e-20
1.84599e-22
-4.27814e-20
1.84999e-22
-4.29668e-20
1.854e-22
-4.31526e-20
1.85801e-22
-4.33388e-20
1.86202e-22
-4.35254e-20
1.86603e-22
-4.37124e-20
1.87004e-22
-4.38998e-20
1.87404e-22
-4.40876e-20
1.87806e-22
-4.42758e-20
1.88206e-22
-4.44644e-20
1.88607e-22
-4.46534e-20
1.89008e-22
-4.48428e-20
1.89409e-22
-4.50326e-20
1.89809e-22
-4.52228e-20
1.90211e-22
-4.54134e-20
1.90611e-22
-4.56044e-20
1.91012e-22
-4.57959e-20
1.91413e-22
-4.59877e-20
1.91814e-22
-4.61799e-20
1.92215e-22
-4.63725e-20
1.92616e-22
-4.65655e-20
1.93016e-22
-4.67589e-20
1.93418e-22
-4.69528e-20
1.93818e-22
-4.7147e-20
1.94219e-22
-4.73416e-20
1.9462e-22
-4.75366e-20
1.95021e-22
-4.7732e-20
1.95422e-22
-4.79279e-20
1.95823e-22
-4.81241e-20
1.96223e-22
-4.83207e-20
1.96625e-22
-4.85177e-20
1.97025e-22
-4.87152e-20
1.97426e-22
-4.8913e-20
1.97827e-22
-4.91112e-20
1.98228e-22
-4.93098e-20
1.98628e-22
-4.95089e-20
1.9903e-22
-4.97083e-20
1.9943e-22
-4.99081e-20
1.99831e-22
-5.01084e-20
2.00232e-22
-5.0309e-20
2.00633e-22
-5.051e-20
2.01034e-22
-5.07115e-20
2.01435e-22
-5.09133e-20
2.01835e-22
-5.11155e-20
2.02237e-22
-5.13182e-20
2.02637e-22
-5.15212e-20
2.03038e-22
-5.17246e-20
2.03439e-22
-5.19285e-20
2.0384e-22
-5.21327e-20
2.04241e-22
-5.23374e-20
2.04642e-22
-5.25424e-20
2.05042e-22
-5.27479e-20
2.05444e-22
-5.29537e-20
2.05844e-22
-5.31599e-20
2.06245e-22
-5.33666e-20
2.06646e-22
-5.35736e-20
2.07047e-22
-5.37811e-20
2.07447e-22
-5.39889e-20
2.07849e-22
-5.41972e-20
2.08249e-22
-5.44058e-20
2.08651e-22
-5.46149e-20
2.09051e-22
-5.48243e-20
2.09452e-22
-5.50342e-20
2.09853e-22
-5.52444e-20
2.10254e-22
-5.54551e-20
2.10654e-22
-5.56662e-20
2.11056e-22
-5.58776e-20
2.11456e-22
-5.60895e-20
2.11857e-22
-5.63017e-20
2.12258e-22
-5.65144e-20
2.12659e-22
-5.67274e-20
2.1306e-22
-5.69409e-20
2.13461e-22
-5.71548e-20
2.13861e-22
-5.7369e-20
2.14263e-22
-5.75837e-20
2.14663e-22
-5.77988e-20
2.15064e-22
-5.80142e-20
2.15465e-22
-5.82301e-20
2.15866e-22
-5.84463e-20
2.16266e-22
-5.8663e-20
2.16668e-22
-5.88801e-20
2.17068e-22
-5.90976e-20
2.1747e-22
-5.93154e-20
2.1787e-22
-5.95337e-20
2.18271e-22
-5.97524e-20
2.18672e-22
-5.99714e-20
2.19073e-22
-6.01909e-20
2.19473e-22
-6.04108e-20
2.19875e-22
-6.06311e-20
2.20275e-22
-6.08517e-20
2.20677e-22
-6.10728e-20
2.21077e-22
-6.12943e-20
2.21478e-22
-6.15162e-20
2.21879e-22
-6.17385e-20
2.2228e-22
-6.19611e-20
2.2268e-22
-6.21842e-20
2.23082e-22
-6.24077e-20
2.23482e-22
-6.26316e-20
2.23883e-22
-6.28559e-20
2.24284e-22
-6.30805e-20
2.24685e-22
-6.33056e-20
2.25086e-22
-6.35311e-20
2.25487e-22
-6.3757e-20
2.25887e-22
-6.39833e-20
2.26289e-22
-6.421e-20
2.26689e-22
-6.44371e-20
2.2709e-22
-6.46646e-20
2.27491e-22
-6.48925e-20
2.27892e-22
-6.51207e-20
2.28292e-22
-6.53494e-20
2.28694e-22
-6.55785e-20
2.29094e-22
-6.5808e-20
2.29496e-22
-6.60379e-20
2.29896e-22
-6.62682e-20
2.30297e-22
-6.64989e-20
2.30698e-22
-6.673e-20
2.31099e-22
-6.69615e-20
2.31499e-22
-6.71934e-20
2.31901e-22
-6.74257e-20
2.32301e-22
-6.76584e-20
2.32702e-22
-6.78915e-20
2.33103e-22
-6.8125e-20
2.33504e-22
-6.83589e-20
2.33905e-22
-6.85932e-20
2.34306e-22
-6.88279e-20
2.34706e-22
-6.90631e-20
2.35108e-22
-6.92986e-20
2.35508e-22
-6.95345e-20
2.35909e-22
-6.97708e-20
2.3631e-22
-7.00075e-20
2.36711e-22
-7.02446e-20
2.37111e-22
-7.04821e-20
2.37513e-22
-7.072e-20
2.37913e-22
-7.09583e-20
2.38315e-22
-7.11971e-20
2.38715e-22
-7.14362e-20
2.39116e-22
-7.16757e-20
2.39517e-22
-7.19156e-20
2.39918e-22
-7.21559e-20
2.40318e-22
-7.23966e-20
2.4072e-22
-7.26378e-20
2.4112e-22
-7.28793e-20
2.41522e-22
-7.31212e-20
2.41922e-22
-7.33635e-20
2.42323e-22
-7.36063e-20
2.42724e-22
-7.38494e-20
2.43125e-22
-7.40929e-20
2.43525e-22
-7.43368e-20
2.43927e-22
-7.45812e-20
2.44327e-22
-7.48259e-20
2.44728e-22
-7.5071e-20
2.45129e-22
-7.53165e-20
2.4553e-22
-7.55625e-20
2.4593e-22
-7.58088e-20
2.46332e-22
-7.60555e-20
2.46732e-22
-7.63027e-20
2.47134e-22
-7.65502e-20
2.47534e-22
-7.67981e-20
2.47935e-22
-7.70465e-20
2.48336e-22
-7.72952e-20
2.48737e-22
-7.75444e-20
2.49137e-22
-7.77939e-20
2.49539e-22
-7.80438e-20
2.49939e-22
-7.82942e-20
2.50341e-22
-7.85449e-20
2.50741e-22
-7.87961e-20
2.51142e-22
-7.90476e-20
2.51543e-22
-7.92995e-20
2.51944e-22
-7.95519e-20
2.52344e-22
-7.98046e-20
2.52746e-22
-8.00578e-20
2.53146e-22
-8.03113e-20
2.53548e-22
-8.05653e-20
2.53948e-22
-8.08196e-20
2.54349e-22
-8.10744e-20
2.54749e-22
-8.13295e-20
2.55151e-22
-8.15851e-20
2.55551e-22
-8.1841e-20
2.55953e-22
-8.20974e-20
2.56353e-22
-8.23541e-20
2.56754e-22
-8.26113e-20
2.57155e-22
-8.28688e-20
2.57556e-22
-8.31268e-20
2.57956e-22
-8.33852e-20
2.58358e-22
-8.36439e-20
2.58758e-22
-8.39031e-20
2.5916e-22
-8.41626e-20
2.5956e-22
-8.44226e-20
2.59961e-22
-8.4683e-20
2.60362e-22
-8.49437e-20
2.60763e-22
-8.52049e-20
2.61163e-22
-8.54664e-20
2.61565e-22
-8.57284e-20
2.61965e-22
-8.59908e-20
2.62367e-22
-8.62535e-20
2.62767e-22
-8.65167e-20
2.63168e-22
-8.67803e-20
2.63568e-22
-8.70442e-20
2.6397e-22
-8.73086e-20
2.6437e-22
-8.75734e-20
2.64772e-22
-8.78386e-20
2.65172e-22
-8.81041e-20
2.65573e-22
-8.83701e-20
2.65974e-22
-8.86365e-20
2.66375e-22
-8.89033e-20
2.66775e-22
-8.91704e-20
2.67177e-22
-8.9438e-20
2.67577e-22
-8.9706e-20
2.67979e-22
-8.99744e-20
2.68379e-22
-9.02432e-20
2.6878e-22
-9.05123e-20
2.69181e-22
-9.07819e-20
2.69582e-22
-9.10519e-20
2.69982e-22
-9.13223e-20
2.70384e-22
-9.15931e-20
2.70784e-22
-9.18642e-20
2.71186e-22
-9.21358e-20
2.71586e-22
-9.24078e-20
2.71987e-22
-9.26802e-20
2.72387e-22
-9.2953e-20
2.72789e-22
-9.32262e-20
2.73189e-22
-9.34998e-20
2.73591e-22
-9.37738e-20
2.73991e-22
-9.40482e-20
2.74393e-22
-9.4323e-20
2.74793e-22
-9.45981e-20
2.75194e-22
-9.48737e-20
2.75594e-22
-9.51497e-20
2.75996e-22
-9.54261e-20
2.76396e-22
-9.57029e-20
2.76798e-22
-9.59801e-20
2.77198e-22
-9.62577e-20
2.77599e-22
-9.65357e-20
2.78e-22
-9.68141e-20
2.78401e-22
-9.70929e-20
2.78801e-22
-9.73721e-20
2.79203e-22
-9.76517e-20
2.79603e-22
-9.79317e-20
2.80005e-22
-9.82121e-20
2.80405e-22
-9.8493e-20
2.80806e-22
-9.87742e-20
2.81206e-22
-9.90558e-20
2.81608e-22
-9.93378e-20
2.82008e-22
-9.96202e-20
2.8241e-22
-9.9903e-20
2.8281e-22
-1.00186e-19
2.83212e-22
-1.0047e-19
2.83612e-22
-1.00754e-19
2.84013e-22
-1.01038e-19
2.84413e-22
-1.01323e-19
2.84815e-22
-1.01608e-19
2.85215e-22
-1.01894e-19
2.85617e-22
-1.0218e-19
2.86017e-22
-1.02466e-19
2.86419e-22
-1.02753e-19
2.86819e-22
-1.0304e-19
2.8722e-22
-1.03328e-19
2.8762e-22
-1.03616e-19
2.88022e-22
-1.03904e-19
2.88422e-22
-1.04193e-19
2.88824e-22
-1.04482e-19
2.89224e-22
-1.04772e-19
2.89625e-22
-1.05062e-19
2.90026e-22
-1.05353e-19
2.90427e-22
-1.05643e-19
2.90827e-22
-1.05935e-19
2.91229e-22
-1.06226e-19
2.91629e-22
-1.06518e-19
2.92031e-22
-1.06811e-19
2.92431e-22
-1.07104e-19
2.92832e-22
-1.07397e-19
2.93232e-22
-1.0769e-19
2.93634e-22
-1.07984e-19
2.94034e-22
-1.08279e-19
2.94436e-22
-1.08574e-19
2.94836e-22
-1.08869e-19
2.95238e-22
-1.09165e-19
2.95638e-22
-1.09461e-19
2.96039e-22
-1.09757e-19
2.96439e-22
-1.10054e-19
2.96841e-22
-1.10351e-19
2.97241e-22
-1.10649e-19
2.97643e-22
-1.10947e-19
2.98043e-22
-1.11245e-19
2.98444e-22
-1.11544e-19
2.98845e-22
-1.11843e-19
2.99246e-22
-1.12143e-19
2.99646e-22
-1.12443e-19
3.00048e-22
-1.12743e-19
3.00448e-22
-1.13044e-19
3.0085e-22
-1.13346e-19
3.0125e-22
-1.13647e-19
3.01651e-22
-1.13949e-19
3.02051e-22
-1.14252e-19
3.02453e-22
-1.14555e-19
3.02853e-22
-1.14858e-19
3.03255e-22
-1.15162e-19
3.03655e-22
-1.15466e-19
3.04057e-22
-1.1577e-19
3.04457e-22
-1.16075e-19
3.04858e-22
-1.1638e-19
3.05258e-22
-1.16686e-19
3.0566e-22
-1.16992e-19
3.0606e-22
-1.17298e-19
3.06462e-22
-1.17605e-19
3.06862e-22
-1.17912e-19
3.07264e-22
-1.1822e-19
3.07664e-22
-1.18528e-19
3.08065e-22
-1.18837e-19
3.08465e-22
-1.19146e-19
3.08867e-22
-1.19455e-19
3.09267e-22
-1.19764e-19
3.09669e-22
-1.20075e-19
3.10069e-22
-1.20385e-19
3.1047e-22
-1.20696e-19
3.1087e-22
-1.21007e-19
3.11272e-22
-1.21319e-19
3.11672e-22
-1.21631e-19
3.12074e-22
-1.21943e-19
3.12474e-22
-1.22256e-19
3.12876e-22
-1.22569e-19
3.13276e-22
-1.22883e-19
3.13677e-22
-1.23197e-19
3.14077e-22
-1.23512e-19
3.14479e-22
-1.23827e-19
3.14879e-22
-1.24142e-19
3.15281e-22
-1.24458e-19
3.15681e-22
-1.24774e-19
3.16083e-22
-1.2509e-19
3.16483e-22
-1.25407e-19
3.16884e-22
-1.25724e-19
3.17284e-22
-1.26042e-19
3.17686e-22
-1.2636e-19
3.18086e-22
-1.26679e-19
3.18488e-22
-1.26997e-19
3.18888e-22
-1.27317e-19
3.19289e-22
-1.27636e-19
3.19689e-22
-1.27957e-19
3.20091e-22
-1.28277e-19
3.20491e-22
-1.28598e-19
3.20893e-22
-1.28919e-19
3.21293e-22
-1.29241e-19
3.21695e-22
-1.29563e-19
3.22095e-22
-1.29885e-19
3.22496e-22
-1.30208e-19
3.22896e-22
-1.30532e-19
3.23298e-22
-1.30855e-19
3.23698e-22
-1.31179e-19
3.241e-22
-1.31504e-19
3.245e-22
-1.31829e-19
3.24902e-22
-1.32154e-19
3.25302e-22
-1.3248e-19
3.25703e-22
-1.32806e-19
3.26103e-22
-1.33132e-19
3.26505e-22
-1.33459e-19
3.26905e-22
-1.33787e-19
3.27307e-22
-1.34114e-19
3.27707e-22
-1.34443e-19
3.28109e-22
-1.34771e-19
3.28508e-22
-1.351e-19
3.2891e-22
-1.35429e-19
3.2931e-22
-1.35759e-19
3.29712e-22
-1.36089e-19
3.30112e-22
-1.3642e-19
3.30514e-22
-1.3675e-19
3.30914e-22
-1.37082e-19
3.31315e-22
-1.37414e-19
3.31715e-22
-1.37746e-19
3.32117e-22
-1.38078e-19
3.32517e-22
-1.38411e-19
3.32919e-22
-1.38744e-19
3.33319e-22
-1.39078e-19
3.33721e-22
-1.39412e-19
3.34121e-22
-1.39747e-19
3.34522e-22
-1.40082e-19
3.34922e-22
-1.40417e-19
3.35324e-22
-1.40753e-19
3.35724e-22
-1.41089e-19
3.36126e-22
-1.41425e-19
3.36526e-22
-1.41762e-19
3.36928e-22
-1.421e-19
3.37327e-22
-1.42437e-19
3.37729e-22
-1.42775e-19
3.38129e-22
-1.43114e-19
3.38531e-22
-1.43453e-19
3.38931e-22
-1.43792e-19
3.39333e-22
-1.44132e-19
3.39733e-22
-1.44472e-19
3.40135e-22
-1.44813e-19
3.40534e-22
-1.45154e-19
3.40936e-22
-1.45495e-19
3.41336e-22
-1.45837e-19
3.41738e-22
-1.46179e-19
3.42138e-22
-1.46521e-19
3.4254e-22
-1.46864e-19
3.4294e-22
-1.47208e-19
3.43341e-22
-1.47551e-19
3.43741e-22
-1.47896e-19
3.44143e-22
-1.4824e-19
3.44543e-22
-1.48585e-19
3.44945e-22
-1.4893e-19
3.45345e-22
-1.49276e-19
3.45747e-22
-1.49622e-19
3.46147e-22
-1.49969e-19
3.46548e-22
-1.50316e-19
3.46948e-22
-1.50663e-19
3.4735e-22
-1.51011e-19
3.4775e-22
-1.51359e-19
3.48152e-22
-1.51708e-19
3.48552e-22
-1.52057e-19
3.48954e-22
-1.52406e-19
3.49353e-22
-1.52756e-19
3.49755e-22
-1.53106e-19
3.50155e-22
-1.53456e-19
3.50557e-22
-1.53807e-19
3.50957e-22
-1.54159e-19
3.51359e-22
-1.5451e-19
3.51759e-22
-1.54863e-19
3.5216e-22
-1.55215e-19
3.5256e-22
-1.55568e-19
3.52962e-22
-1.55921e-19
3.53362e-22
-1.56275e-19
3.53764e-22
-1.56629e-19
3.54164e-22
-1.56984e-19
3.54566e-22
-1.57339e-19
3.54966e-22
-1.57694e-19
3.55367e-22
-1.5805e-19
3.55767e-22
-1.58406e-19
3.56169e-22
-1.58763e-19
3.56569e-22
-1.5912e-19
3.56971e-22
-1.59477e-19
3.57371e-22
-1.59835e-19
3.57773e-22
-1.60193e-19
3.58172e-22
-1.60552e-19
3.58574e-22
-1.60911e-19
3.58974e-22
-1.6127e-19
3.59376e-22
-1.6163e-19
3.59776e-22
-1.6199e-19
3.60178e-22
-1.62351e-19
3.60578e-22
-1.62712e-19
3.6098e-22
-1.63073e-19
3.61379e-22
-1.63435e-19
3.61781e-22
-1.63797e-19
3.62181e-22
-1.64159e-19
3.62583e-22
-1.64522e-19
3.62983e-22
-1.64886e-19
3.63385e-22
-1.6525e-19
3.63785e-22
-1.65614e-19
3.64186e-22
-1.65978e-19
3.64586e-22
-1.66343e-19
3.64988e-22
-1.66709e-19
3.65388e-22
-1.67075e-19
3.6579e-22
-1.67441e-19
3.6619e-22
-1.67807e-19
3.66592e-22
-1.68174e-19
3.66991e-22
-1.68542e-19
3.67393e-22
-1.68909e-19
3.67793e-22
-1.69278e-19
3.68195e-22
-1.69646e-19
3.68595e-22
-1.70015e-19
3.68997e-22
-1.70385e-19
3.69397e-22
-1.70754e-19
3.69799e-22
-1.71125e-19
3.70198e-22
-1.71495e-19
3.706e-22
-1.71866e-19
3.71e-22
-1.72238e-19
3.71402e-22
-1.72609e-19
3.71802e-22
-1.72982e-19
3.72204e-22
-1.73354e-19
3.72604e-22
-1.73727e-19
3.73006e-22
-1.74101e-19
3.73405e-22
-1.74474e-19
3.73807e-22
-1.74849e-19
3.74207e-22
-1.75223e-19
3.74609e-22
-1.75598e-19
3.75009e-22
-1.75974e-19
3.75411e-22
-1.7635e-19
3.7581e-22
-1.76726e-19
3.76212e-22
-1.77102e-19
3.76612e-22
-1.77479e-19
3.77014e-22
-1.77857e-19
3.77414e-22
-1.78235e-19
3.77816e-22
-1.78613e-19
3.78216e-22
-1.78991e-19
3.78618e-22
-1.7937e-19
3.79017e-22
-1.7975e-19
3.79419e-22
-1.8013e-19
3.79819e-22
-1.8051e-19
3.80221e-22
-1.80891e-19
3.80621e-22
-1.81272e-19
3.81023e-22
-1.81653e-19
3.81423e-22
-1.82035e-19
3.81825e-22
-1.82417e-19
3.82224e-22
-1.828e-19
3.82626e-22
-1.83183e-19
3.83026e-22
-1.83566e-19
3.83428e-22
-1.8395e-19
3.83828e-22
-1.84334e-19
3.8423e-22
-1.84719e-19
3.84629e-22
-1.85104e-19
3.85031e-22
-1.85489e-19
3.85431e-22
-1.85875e-19
3.85833e-22
-1.86261e-19
3.86233e-22
-1.86648e-19
3.86635e-22
-1.87035e-19
3.87035e-22
-1.87422e-19
3.87437e-22
-1.8781e-19
3.87836e-22
-1.88198e-19
3.88238e-22
-1.88587e-19
3.88638e-22
-1.88976e-19
3.8904e-22
-1.89366e-19
3.8944e-22
-1.89755e-19
3.89842e-22
-1.90146e-19
3.90242e-22
-1.90536e-19
3.90644e-22
-1.90927e-19
3.91043e-22
-1.91319e-19
3.91445e-22
-1.91711e-19
3.91845e-22
-1.92103e-19
3.92247e-22
-1.92496e-19
3.92647e-22
-1.92889e-19
3.93049e-22
-1.93282e-19
3.93448e-22
-1.93676e-19
3.93851e-22
-1.9407e-19
3.9425e-22
-1.94465e-19
3.94652e-22
-1.9486e-19
3.95052e-22
-1.95255e-19
3.95454e-22
-1.95651e-19
3.95854e-22
-1.96047e-19
3.96256e-22
-1.96444e-19
3.96655e-22
-1.96841e-19
3.97057e-22
-1.97239e-19
3.97457e-22
-1.97636e-19
3.97859e-22
-1.98035e-19
3.98259e-22
-1.98433e-19
3.98661e-22
-1.98832e-19
3.99061e-22
-1.99232e-19
3.99463e-22
-1.99632e-19
3.99862e-22
-2.00032e-19
4.00264e-22
-2.00433e-19
4.00664e-22
-2.00834e-19
4.01066e-22
-2.01235e-19
4.01466e-22
-2.01637e-19
4.01868e-22
-2.02039e-19
4.02268e-22
-2.02442e-19
4.0267e-22
-2.02845e-19
4.03069e-22
-2.03249e-19
4.03471e-22
-2.03652e-19
4.03871e-22
-2.04057e-19
4.04273e-22
-2.04461e-19
4.04673e-22
-2.04866e-19
4.05075e-22
-2.05272e-19
4.05474e-22
-2.05678e-19
4.05876e-22
-2.06084e-19
4.06276e-22
-2.06491e-19
4.06678e-22
-2.06898e-19
4.07078e-22
-2.07305e-19
4.0748e-22
-2.07713e-19
4.0788e-22
-2.08121e-19
4.08282e-22
-2.0853e-19
4.08681e-22
-2.08939e-19
4.09083e-22
-2.09349e-19
4.09483e-22
-2.09759e-19
4.09885e-22
-2.10169e-19
4.10285e-22
-2.1058e-19
4.10687e-22
-2.10991e-19
4.11087e-22
-2.11402e-19
4.11489e-22
-2.11814e-19
4.11888e-22
-2.12226e-19
4.1229e-22
-2.12639e-19
4.1269e-22
-2.13052e-19
4.13092e-22
-2.13466e-19
4.13492e-22
-2.1388e-19
4.13894e-22
-2.14294e-19
4.14293e-22
-2.14708e-19
4.14696e-22
-2.15124e-19
4.15095e-22
-2.15539e-19
4.15497e-22
-2.15955e-19
4.15897e-22
-2.16371e-19
4.16299e-22
-2.16788e-19
4.16699e-22
-2.17205e-19
4.17101e-22
-2.17623e-19
4.175e-22
-2.1804e-19
4.17902e-22
-2.18459e-19
4.18302e-22
-2.18877e-19
4.18704e-22
-2.19297e-19
4.19104e-22
-2.19716e-19
4.19506e-22
-2.20136e-19
4.19906e-22
-2.20556e-19
4.20308e-22
-2.20977e-19
4.20707e-22
-2.21398e-19
4.21109e-22
-2.2182e-19
4.21509e-22
-2.22242e-19
4.21911e-22
-2.22664e-19
4.22311e-22
-2.23087e-19
4.22713e-22
-2.2351e-19
4.23112e-22
-2.23933e-19
4.23515e-22
-2.24357e-19
4.23914e-22
-2.24781e-19
4.24316e-22
-2.25206e-19
4.24716e-22
-2.25631e-19
4.25118e-22
-2.26057e-19
4.25518e-22
-2.26483e-19
4.2592e-22
-2.26909e-19
4.26319e-22
-2.27336e-19
4.26722e-22
-2.27763e-19
4.27121e-22
-2.2819e-19
4.27523e-22
-2.28618e-19
4.27923e-22
-2.29047e-19
4.28325e-22
-2.29475e-19
4.28725e-22
-2.29904e-19
4.29127e-22
-2.30334e-19
4.29526e-22
-2.30764e-19
4.29928e-22
-2.31194e-19
4.30328e-22
-2.31625e-19
4.3073e-22
-2.32056e-19
4.3113e-22
-2.32488e-19
4.31532e-22
-2.3292e-19
4.31931e-22
-2.33352e-19
4.32334e-22
-2.33785e-19
4.32733e-22
-2.34218e-19
4.33135e-22
-2.34651e-19
4.33535e-22
-2.35085e-19
4.33937e-22
-2.3552e-19
4.34337e-22
-2.35954e-19
4.34739e-22
-2.36389e-19
4.35138e-22
-2.36825e-19
4.35541e-22
-2.37261e-19
4.3594e-22
-2.37697e-19
4.36342e-22
-2.38134e-19
4.36742e-22
-2.38571e-19
4.37144e-22
-2.39009e-19
4.37544e-22
-2.39447e-19
4.37946e-22
-2.39885e-19
4.38345e-22
-2.40324e-19
4.38747e-22
-2.40763e-19
4.39147e-22
-2.41202e-19
4.39549e-22
-2.41642e-19
4.39949e-22
-2.42083e-19
4.40351e-22
-2.42524e-19
4.4075e-22
-2.42965e-19
4.41153e-22
-2.43406e-19
4.41552e-22
-2.43848e-19
4.41954e-22
-2.44291e-19
4.42354e-22
-2.44733e-19
4.42756e-22
-2.45176e-19
4.43156e-22
-2.4562e-19
4.43558e-22
-2.46064e-19
4.43957e-22
-2.46508e-19
4.4436e-22
-2.46953e-19
4.44759e-22
-2.47398e-19
4.45161e-22
-2.47844e-19
4.45561e-22
-2.4829e-19
4.45963e-22
-2.48736e-19
4.46363e-22
-2.49183e-19
4.46765e-22
-2.4963e-19
4.47164e-22
-2.50078e-19
4.47567e-22
-2.50526e-19
4.47966e-22
-2.50974e-19
4.48368e-22
-2.51423e-19
4.48768e-22
-2.51872e-19
4.4917e-22
-2.52321e-19
4.49569e-22
-2.52771e-19
4.49972e-22
-2.53222e-19
4.50371e-22
-2.53673e-19
4.50773e-22
-2.54124e-19
4.51173e-22
-2.54575e-19
4.51575e-22
-2.55027e-19
4.51975e-22
-2.5548e-19
4.52377e-22
-2.55932e-19
4.52776e-22
-2.56386e-19
4.53179e-22
-2.56839e-19
4.53578e-22
-2.57293e-19
4.5398e-22
-2.57748e-19
4.5438e-22
-2.58202e-19
4.54782e-22
-2.58658e-19
4.55182e-22
-2.59113e-19
4.55584e-22
-2.59569e-19
4.55983e-22
-2.60025e-19
4.56386e-22
-2.60482e-19
4.56785e-22
-2.60939e-19
4.57187e-22
-2.61397e-19
4.57587e-22
-2.61855e-19
4.57989e-22
-2.62313e-19
4.58389e-22
-2.62772e-19
4.58791e-22
-2.63231e-19
4.5919e-22
-2.63691e-19
4.59593e-22
-2.64151e-19
4.59992e-22
-2.64611e-19
4.60394e-22
-2.65072e-19
4.60794e-22
-2.65533e-19
4.61196e-22
-2.65995e-19
4.61595e-22
-2.66457e-19
4.61998e-22
-2.66919e-19
4.62397e-22
-2.67382e-19
4.62799e-22
-2.67845e-19
4.63199e-22
-2.68309e-19
4.63601e-22
-2.68773e-19
4.64001e-22
-2.69237e-19
4.64403e-22
-2.69702e-19
4.64802e-22
-2.70167e-19
4.65205e-22
-2.70633e-19
4.65604e-22
-2.71099e-19
4.66006e-22
-2.71565e-19
4.66406e-22
-2.72032e-19
4.66808e-22
-2.72499e-19
4.67208e-22
-2.72967e-19
4.6761e-22
-2.73435e-19
4.68009e-22
-2.73903e-19
4.68412e-22
-2.74372e-19
4.68811e-22
-2.74841e-19
4.69213e-22
-2.75311e-19
4.69613e-22
-2.75781e-19