/*--------------------------------*- C++ -*----------------------------------*\
| =========                 |                                                 |
| \\      /  F ield         | OpenFOAM: The Open Source CFD Toolbox           |
|  \\    /   O peration     | Version:  2206                                  |
|   \\  /    A nd           | Website:  www.openfoam.com                      |
|    \\/     M anipulation  |                                                 |
\*---------------------------------------------------------------------------*/
FoamFile
{
    version     2.0;
    format      ascii;
    arch        "LSB;label=32;scalar=64";
    class       volScalarField;
    location    "230";
    object      p;
}
// * * * * * * * * * * * * * * * * * * * * * * * * * * * * * * * * * * * * * //

dimensions      [0 2 -2 0 0 0 0];

internalField   nonuniform List<scalar> 
100000
(
1.33384e-10
2.8461e-08
4.786e-08
5.74519e-08
6.49582e-08
8.19663e-08
9.18824e-08
1.07075e-07
1.22086e-07
1.43055e-07
1.61298e-07
1.79927e-07
2.02959e-07
2.26464e-07
2.54742e-07
2.83072e-07
3.08873e-07
3.41823e-07
3.72957e-07
4.11301e-07
4.4705e-07
4.83345e-07
5.23363e-07
5.6553e-07
6.10423e-07
6.58479e-07
7.0775e-07
7.5385e-07
8.07462e-07
8.59313e-07
9.18063e-07
9.74931e-07
1.03121e-06
1.09289e-06
1.15456e-06
1.22169e-06
1.28811e-06
1.353e-06
1.42408e-06
1.49449e-06
1.57092e-06
1.64617e-06
1.72029e-06
1.80028e-06
1.87986e-06
1.96524e-06
2.04964e-06
2.13274e-06
2.22186e-06
2.31043e-06
2.40494e-06
2.49834e-06
2.59057e-06
2.68868e-06
2.78639e-06
2.88989e-06
2.99244e-06
3.09363e-06
3.20093e-06
3.30757e-06
3.42031e-06
3.53171e-06
3.64223e-06
3.7583e-06
3.87436e-06
3.99575e-06
4.11672e-06
4.2357e-06
4.36157e-06
4.48583e-06
4.61733e-06
4.74612e-06
4.87568e-06
5.00882e-06
5.14431e-06
5.28235e-06
5.42378e-06
5.5662e-06
5.7057e-06
5.85257e-06
5.99778e-06
6.14986e-06
6.30004e-06
6.44969e-06
6.60473e-06
6.75975e-06
6.92029e-06
7.08005e-06
7.23836e-06
7.40282e-06
7.56663e-06
7.73647e-06
7.90511e-06
8.07265e-06
8.24606e-06
8.41903e-06
8.59788e-06
8.77563e-06
8.95221e-06
9.1347e-06
9.31676e-06
9.50465e-06
9.69153e-06
9.87711e-06
1.00688e-05
1.02598e-05
1.04569e-05
1.06526e-05
1.08475e-05
1.1048e-05
1.12484e-05
1.14542e-05
1.16595e-05
1.18629e-05
1.20731e-05
1.22817e-05
1.24976e-05
1.27108e-05
1.29247e-05
1.31422e-05
1.33621e-05
1.35845e-05
1.38103e-05
1.40371e-05
1.4261e-05
1.44922e-05
1.47218e-05
1.49582e-05
1.51928e-05
1.54268e-05
1.56662e-05
1.59056e-05
1.61505e-05
1.63946e-05
1.66373e-05
1.68862e-05
1.71343e-05
1.73886e-05
1.76416e-05
1.78935e-05
1.81512e-05
1.84086e-05
1.86718e-05
1.8934e-05
1.91949e-05
1.94618e-05
1.97282e-05
2.00005e-05
2.02717e-05
2.05417e-05
2.08176e-05
2.10931e-05
2.13745e-05
2.16548e-05
2.19338e-05
2.22189e-05
2.25033e-05
2.27939e-05
2.30831e-05
2.33714e-05
2.36653e-05
2.39592e-05
2.42584e-05
2.45572e-05
2.4854e-05
2.51576e-05
2.54597e-05
2.5769e-05
2.60756e-05
2.6383e-05
2.66939e-05
2.70073e-05
2.73231e-05
2.76424e-05
2.79626e-05
2.82799e-05
2.86046e-05
2.89276e-05
2.92575e-05
2.95855e-05
2.99129e-05
3.02458e-05
3.05786e-05
3.0917e-05
3.12545e-05
3.15907e-05
3.19329e-05
3.22746e-05
3.26222e-05
3.29686e-05
3.3314e-05
3.36652e-05
3.4016e-05
3.43727e-05
3.47282e-05
3.50826e-05
3.54429e-05
3.58028e-05
3.61685e-05
3.65331e-05
3.68965e-05
3.7266e-05
3.76348e-05
3.80097e-05
3.83833e-05
3.8756e-05
3.91343e-05
3.95125e-05
3.98961e-05
4.02792e-05
4.06604e-05
4.10484e-05
4.14348e-05
4.18285e-05
4.22195e-05
4.26112e-05
4.30065e-05
4.34042e-05
4.38044e-05
4.4208e-05
4.46126e-05
4.50143e-05
4.54233e-05
4.58307e-05
4.6245e-05
4.66573e-05
4.70692e-05
4.74864e-05
4.79036e-05
4.83263e-05
4.87482e-05
4.91687e-05
4.95953e-05
5.00213e-05
5.04533e-05
5.08841e-05
5.13139e-05
5.17494e-05
5.21846e-05
5.26256e-05
5.30655e-05
5.35043e-05
5.3949e-05
5.43931e-05
5.48433e-05
5.52922e-05
5.57401e-05
5.61938e-05
5.66471e-05
5.71062e-05
5.75643e-05
5.80212e-05
5.84841e-05
5.89463e-05
5.94147e-05
5.98817e-05
6.03478e-05
6.08195e-05
6.12911e-05
6.17681e-05
6.22447e-05
6.27193e-05
6.32008e-05
6.36806e-05
6.41678e-05
6.46521e-05
6.51373e-05
6.56261e-05
6.61172e-05
6.66108e-05
6.71079e-05
6.76059e-05
6.8101e-05
6.86035e-05
6.91043e-05
6.9612e-05
7.01177e-05
7.0623e-05
7.11337e-05
7.16443e-05
7.21605e-05
7.26758e-05
7.31897e-05
7.37098e-05
7.42292e-05
7.47547e-05
7.52789e-05
7.5802e-05
7.6331e-05
7.68596e-05
7.73941e-05
7.79274e-05
7.84596e-05
7.89977e-05
7.95354e-05
8.00789e-05
8.06213e-05
8.11625e-05
8.17098e-05
8.22564e-05
8.28091e-05
8.33604e-05
8.39109e-05
8.4467e-05
8.5023e-05
8.55844e-05
8.61453e-05
8.67043e-05
8.72701e-05
8.78343e-05
8.84058e-05
8.89745e-05
8.95441e-05
9.01172e-05
9.06927e-05
9.12706e-05
9.18521e-05
9.24344e-05
9.30139e-05
9.36007e-05
9.41859e-05
9.4778e-05
9.53681e-05
9.59577e-05
9.65527e-05
9.71477e-05
9.77482e-05
9.83479e-05
9.89462e-05
9.95507e-05
0.000100154
0.000100764
0.000101373
0.00010198
0.000102594
0.000103207
0.000103825
0.000104443
0.00010506
0.000105682
0.000106304
0.000106932
0.000107559
0.000108184
0.000108816
0.000109447
0.000110084
0.00011072
0.000111355
0.000111995
0.000112635
0.000113281
0.000113926
0.00011457
0.00011522
0.000115869
0.000116524
0.000117178
0.000117831
0.00011849
0.000119147
0.000119812
0.000120475
0.000121138
0.000121804
0.000122473
0.000123144
0.000123819
0.000124495
0.000125168
0.000125848
0.000126527
0.000127212
0.000127896
0.000128579
0.000129267
0.000129956
0.00013065
0.000131343
0.000132035
0.000132732
0.00013343
0.000134133
0.000134835
0.000135536
0.000136243
0.000136949
0.000137661
0.000138372
0.000139082
0.000139798
0.000140514
0.000141235
0.000141955
0.000142674
0.000143399
0.000144124
0.000144854
0.000145583
0.000146312
0.000147045
0.000147779
0.000148518
0.000149257
0.000149994
0.000150737
0.000151479
0.000152229
0.000152975
0.000153723
0.000154473
0.000155227
0.000155983
0.000156742
0.000157502
0.000158259
0.000159024
0.000159787
0.000160557
0.000161324
0.000162092
0.000162865
0.000163637
0.000164416
0.000165193
0.000165969
0.000166752
0.000167533
0.000168321
0.000169107
0.000169892
0.000170684
0.000171474
0.000172271
0.000173066
0.000173861
0.000174661
0.000175461
0.000176266
0.000177071
0.000177874
0.000178684
0.000179493
0.000180307
0.000181121
0.000181933
0.000182752
0.00018357
0.000184394
0.000185216
0.000186038
0.000186865
0.000187692
0.000188525
0.000189357
0.000190187
0.000191024
0.00019186
0.000192702
0.000193542
0.000194383
0.000195227
0.000196074
0.000196923
0.000197776
0.00019863
0.00019948
0.000200338
0.000201195
0.000202058
0.000202919
0.00020378
0.000204646
0.000205513
0.000206384
0.000207255
0.000208125
0.000209
0.000209875
0.000210756
0.000211636
0.000212515
0.0002134
0.000214284
0.000215174
0.000216063
0.00021695
0.000217844
0.000218737
0.000219636
0.000220534
0.000221431
0.000222334
0.000223236
0.000224145
0.000225051
0.000225958
0.000226869
0.000227781
0.000228698
0.000229614
0.000230529
0.00023145
0.00023237
0.000233297
0.000234221
0.000235146
0.000236075
0.000237006
0.00023794
0.000238877
0.000239815
0.00024075
0.000241692
0.000242633
0.00024358
0.000244526
0.000245471
0.000246422
0.000247373
0.000248329
0.000249284
0.000250238
0.000251198
0.000252157
0.000253122
0.000254087
0.00025505
0.000256019
0.000256987
0.000257962
0.000258935
0.000259907
0.000260885
0.000261863
0.000262846
0.000263828
0.00026481
0.000265797
0.000266783
0.000267776
0.000268767
0.000269757
0.000270754
0.000271749
0.000272751
0.000273751
0.000274751
0.000275756
0.000276761
0.000277771
0.000278781
0.000279789
0.000280804
0.000281817
0.000282838
0.000283856
0.000284874
0.000285896
0.000286921
0.000287948
0.000288978
0.000290009
0.000291038
0.000292074
0.000293108
0.000294149
0.000295188
0.000296227
0.000297271
0.000298315
0.000299364
0.000300413
0.00030146
0.000302514
0.000303566
0.000304625
0.000305683
0.000306739
0.000307802
0.000308864
0.000309932
0.000310998
0.000312064
0.000313135
0.000314206
0.000315283
0.000316359
0.000317433
0.000318514
0.000319594
0.00032068
0.000321765
0.000322849
0.000323938
0.000325027
0.000326122
0.000327217
0.000328309
0.000329408
0.000330506
0.00033161
0.000332713
0.000333815
0.000334922
0.000336031
0.000337142
0.000338257
0.000339373
0.000340485
0.000341606
0.000342724
0.00034385
0.000344973
0.000346096
0.000347224
0.000348353
0.000349487
0.00035062
0.000351751
0.000352889
0.000354026
0.000355169
0.000356311
0.000357452
0.000358599
0.000359745
0.000360897
0.000362049
0.000363198
0.000364354
0.00036551
0.000366671
0.000367831
0.00036899
0.000370155
0.000371319
0.00037249
0.000373659
0.000374827
0.000376001
0.000377174
0.000378354
0.000379532
0.000380709
0.000381892
0.000383075
0.000384263
0.000385451
0.000386636
0.000387829
0.00038902
0.000390218
0.000391414
0.00039261
0.00039381
0.000395012
0.000396217
0.000397425
0.000398634
0.000399841
0.000401054
0.000402266
0.000403485
0.000404702
0.000405918
0.00040714
0.000408362
0.000409589
0.000410816
0.000412041
0.000413272
0.000414503
0.000415739
0.000416975
0.000418209
0.000419449
0.000420689
0.000421934
0.000423179
0.000424422
0.000425672
0.00042692
0.000428175
0.000429429
0.000430681
0.000431939
0.000433197
0.000434461
0.000435723
0.000436985
0.000438252
0.000439519
0.000440792
0.000442064
0.000443334
0.000444611
0.000445886
0.000447169
0.000448449
0.00044973
0.000451014
0.000452301
0.00045359
0.000454882
0.000456176
0.000457466
0.000458764
0.000460061
0.000461364
0.000462665
0.000463966
0.000465272
0.000466578
0.00046789
0.000469201
0.00047051
0.000471826
0.000473141
0.000474462
0.000475781
0.0004771
0.000478424
0.000479749
0.000481078
0.000482407
0.000483735
0.000485069
0.000486402
0.000487741
0.000489079
0.000490415
0.000491758
0.0004931
0.000494448
0.000495795
0.000497141
0.000498493
0.000499844
0.000501202
0.000502557
0.000503913
0.000505273
0.000506634
0.000508
0.000509365
0.000510729
0.000512099
0.000513468
0.000514844
0.000516217
0.000517591
0.000518969
0.000520349
0.000521732
0.000523118
0.000524505
0.000525889
0.00052728
0.00052867
0.000530066
0.000531461
0.000532855
0.000534255
0.000535654
0.00053706
0.000538464
0.000539867
0.000541276
0.000542684
0.000544098
0.000545512
0.000546924
0.000548342
0.000549759
0.000551182
0.000552605
0.000554026
0.000555453
0.000556879
0.000558312
0.000559743
0.000561173
0.00056261
0.000564045
0.000565487
0.000566927
0.000568366
0.000569811
0.000571256
0.000572707
0.000574157
0.000575604
0.000577059
0.000578512
0.000579973
0.00058143
0.000582889
0.000584351
0.000585815
0.000587282
0.000588753
0.000590224
0.000591692
0.000593168
0.000594642
0.000596123
0.000597602
0.000599081
0.000600565
0.000602049
0.000603538
0.000605027
0.000606514
0.000608007
0.0006095
0.000610999
0.000612496
0.000613993
0.000615495
0.000616997
0.000618505
0.000620011
0.000621517
0.000623028
0.000624539
0.000626056
0.000627571
0.000629086
0.000630606
0.000632127
0.000633652
0.000635177
0.000636701
0.00063823
0.000639759
0.000641294
0.000642828
0.000644361
0.000645899
0.000647438
0.000648981
0.000650525
0.000652066
0.000653614
0.000655161
0.000656715
0.000658266
0.000659818
0.000661373
0.000662931
0.000664491
0.000666055
0.00066762
0.000669182
0.000670751
0.000672318
0.000673893
0.000675465
0.000677037
0.000678615
0.000680192
0.000681775
0.000683357
0.000684937
0.000686524
0.00068811
0.000689703
0.000691294
0.000692883
0.000694479
0.000696074
0.000697676
0.000699276
0.000700875
0.000702479
0.000704084
0.000705694
0.000707303
0.000708911
0.000710525
0.000712138
0.000713758
0.000715376
0.000716993
0.000718616
0.000720238
0.000721867
0.000723494
0.00072512
0.000726752
0.000728383
0.000730022
0.000731657
0.000733293
0.000734933
0.000736575
0.00073822
0.000739868
0.000741517
0.000743163
0.000744817
0.000746469
0.000748128
0.000749784
0.000751441
0.000753102
0.000754764
0.000756431
0.000758098
0.000759763
0.000761434
0.000763104
0.000764781
0.000766456
0.00076813
0.000769811
0.00077149
0.000773176
0.00077486
0.000776543
0.000778233
0.000779921
0.000781616
0.000783309
0.000785002
0.0007867
0.000788398
0.000790101
0.000791804
0.000793505
0.000795213
0.000796919
0.000798632
0.000800344
0.000802054
0.000803771
0.000805487
0.000807208
0.000808929
0.000810648
0.000812374
0.000814099
0.00081583
0.000817559
0.000819289
0.000821022
0.000822758
0.000824496
0.000826238
0.00082798
0.00082972
0.000831467
0.000833212
0.000834964
0.000836714
0.000838464
0.000840219
0.000841974
0.000843735
0.000845495
0.000847253
0.000849018
0.000850782
0.000852552
0.000854321
0.000856088
0.000857862
0.000859635
0.000861414
0.000863192
0.000864968
0.000866751
0.000868533
0.000870321
0.000872108
0.000873894
0.000875685
0.000877476
0.000879274
0.00088107
0.000882865
0.000884665
0.000886466
0.000888271
0.000890077
0.00089188
0.000893691
0.000895499
0.000897315
0.000899129
0.000900943
0.00090276
0.00090458
0.000906403
0.000908229
0.000910055
0.000911879
0.000913711
0.00091554
0.000917377
0.000919212
0.000921046
0.000922885
0.000924725
0.00092657
0.000928414
0.000930257
0.000932106
0.000933954
0.000935808
0.000937661
0.000939513
0.000941371
0.000943229
0.000945092
0.000946954
0.000948815
0.000950682
0.000952549
0.000954421
0.000956292
0.000958162
0.000960038
0.000961914
0.000963795
0.000965676
0.000967555
0.00096944
0.000971325
0.000973215
0.000975105
0.000976993
0.000978887
0.000980781
0.00098268
0.000984579
0.000986476
0.00098838
0.000990282
0.000992191
0.000994098
0.000996005
0.000997916
0.00099983
0.00100175
0.00100367
0.00100559
0.0010075
0.00100943
0.00101135
0.00101328
0.00101521
0.00101714
0.00101907
0.001021
0.00102294
0.00102488
0.00102681
0.00102876
0.0010307
0.00103265
0.00103459
0.00103654
0.00103849
0.00104044
0.0010424
0.00104435
0.00104631
0.00104827
0.00105023
0.00105219
0.00105416
0.00105612
0.00105809
0.00106006
0.00106203
0.00106401
0.00106598
0.00106796
0.00106994
0.00107192
0.0010739
0.00107589
0.00107787
0.00107986
0.00108185
0.00108385
0.00108584
0.00108783
0.00108983
0.00109183
0.00109383
0.00109584
0.00109784
0.00109985
0.00110186
0.00110387
0.00110588
0.0011079
0.00110991
0.00111193
0.00111395
0.00111598
0.001118
0.00112002
0.00112205
0.00112408
0.00112611
0.00112814
0.00113018
0.00113221
0.00113425
0.00113629
0.00113833
0.00114038
0.00114242
0.00114447
0.00114652
0.00114857
0.00115062
0.00115268
0.00115473
0.00115679
0.00115885
0.00116091
0.00116297
0.00116504
0.00116711
0.00116918
0.00117125
0.00117332
0.0011754
0.00117747
0.00117955
0.00118163
0.00118371
0.0011858
0.00118788
0.00118997
0.00119206
0.00119415
0.00119624
0.00119834
0.00120044
0.00120253
0.00120463
0.00120673
0.00120884
0.00121095
0.00121305
0.00121516
0.00121727
0.00121939
0.00122151
0.00122362
0.00122574
0.00122786
0.00122999
0.00123211
0.00123423
0.00123636
0.00123849
0.00124063
0.00124276
0.00124489
0.00124703
0.00124917
0.00125131
0.00125345
0.00125559
0.00125774
0.00125989
0.00126204
0.00126419
0.00126634
0.0012685
0.00127065
0.00127282
0.00127498
0.00127714
0.0012793
0.00128147
0.00128364
0.00128581
0.00128798
0.00129015
0.00129233
0.0012945
0.00129668
0.00129887
0.00130105
0.00130323
0.00130542
0.00130761
0.0013098
0.00131199
0.00131419
0.00131638
0.00131858
0.00132078
0.00132298
0.00132518
0.00132739
0.0013296
0.00133181
0.00133401
0.00133623
0.00133844
0.00134066
0.00134288
0.00134509
0.00134732
0.00134954
0.00135177
0.00135399
0.00135622
0.00135845
0.00136068
0.00136292
0.00136515
0.00136739
0.00136963
0.00137187
0.00137412
0.00137636
0.00137861
0.00138085
0.0013831
0.00138536
0.00138761
0.00138987
0.00139213
0.00139438
0.00139665
0.00139891
0.00140117
0.00140344
0.00140571
0.00140798
0.00141026
0.00141253
0.0014148
0.00141708
0.00141936
0.00142165
0.00142393
0.00142622
0.0014285
0.00143079
0.00143309
0.00143538
0.00143767
0.00143997
0.00144227
0.00144457
0.00144687
0.00144917
0.00145148
0.00145379
0.0014561
0.00145841
0.00146072
0.00146304
0.00146535
0.00146767
0.00146999
0.00147231
0.00147464
0.00147696
0.00147929
0.00148162
0.00148395
0.00148628
0.00148862
0.00149096
0.0014933
0.00149563
0.00149798
0.00150032
0.00150267
0.00150501
0.00150736
0.00150971
0.00151207
0.00151442
0.00151678
0.00151914
0.0015215
0.00152386
0.00152623
0.0015286
0.00153096
0.00153333
0.0015357
0.00153808
0.00154046
0.00154283
0.00154521
0.00154759
0.00154997
0.00155236
0.00155475
0.00155713
0.00155952
0.00156191
0.00156431
0.00156671
0.0015691
0.0015715
0.0015739
0.00157631
0.00157871
0.00158111
0.00158352
0.00158593
0.00158835
0.00159076
0.00159317
0.00159559
0.00159801
0.00160043
0.00160286
0.00160528
0.00160771
0.00161013
0.00161257
0.001615
0.00161743
0.00161987
0.0016223
0.00162474
0.00162718
0.00162962
0.00163207
0.00163452
0.00163697
0.00163942
0.00164187
0.00164432
0.00164678
0.00164924
0.0016517
0.00165416
0.00165662
0.00165909
0.00166155
0.00166403
0.0016665
0.00166897
0.00167144
0.00167392
0.0016764
0.00167888
0.00168136
0.00168384
0.00168633
0.00168882
0.00169131
0.00169379
0.00169629
0.00169878
0.00170128
0.00170378
0.00170627
0.00170878
0.00171128
0.00171379
0.0017163
0.0017188
0.00172131
0.00172382
0.00172634
0.00172886
0.00173137
0.00173389
0.00173641
0.00173894
0.00174147
0.00174399
0.00174652
0.00174905
0.00175158
0.00175412
0.00175666
0.00175919
0.00176174
0.00176428
0.00176683
0.00176937
0.00177192
0.00177447
0.00177702
0.00177957
0.00178213
0.00178468
0.00178724
0.0017898
0.00179237
0.00179493
0.0017975
0.00180006
0.00180263
0.00180521
0.00180778
0.00181035
0.00181293
0.00181551
0.00181809
0.00182067
0.00182326
0.00182584
0.00182843
0.00183102
0.00183361
0.0018362
0.0018388
0.0018414
0.001844
0.0018466
0.0018492
0.0018518
0.00185441
0.00185702
0.00185963
0.00186224
0.00186485
0.00186746
0.00187008
0.0018727
0.00187532
0.00187794
0.00188057
0.00188319
0.00188583
0.00188846
0.00189109
0.00189372
0.00189636
0.001899
0.00190164
0.00190427
0.00190692
0.00190956
0.00191221
0.00191486
0.00191751
0.00192016
0.00192281
0.00192547
0.00192813
0.00193079
0.00193345
0.00193611
0.00193878
0.00194145
0.00194411
0.00194678
0.00194945
0.00195213
0.00195481
0.00195748
0.00196016
0.00196284
0.00196553
0.00196821
0.0019709
0.00197359
0.00197628
0.00197897
0.00198167
0.00198436
0.00198706
0.00198976
0.00199246
0.00199516
0.00199787
0.00200057
0.00200328
0.00200599
0.00200871
0.00201142
0.00201414
0.00201686
0.00201957
0.0020223
0.00202502
0.00202775
0.00203047
0.0020332
0.00203594
0.00203867
0.0020414
0.00204414
0.00204688
0.00204962
0.00205236
0.0020551
0.00205785
0.0020606
0.00206335
0.0020661
0.00206885
0.00207161
0.00207436
0.00207712
0.00207988
0.00208264
0.00208541
0.00208817
0.00209094
0.00209371
0.00209648
0.00209925
0.00210203
0.00210481
0.00210758
0.00211036
0.00211314
0.00211593
0.00211872
0.0021215
0.00212429
0.00212708
0.00212987
0.00213267
0.00213547
0.00213826
0.00214106
0.00214387
0.00214667
0.00214948
0.00215229
0.00215509
0.00215791
0.00216072
0.00216354
0.00216636
0.00216917
0.00217199
0.00217482
0.00217764
0.00218047
0.00218329
0.00218613
0.00218896
0.00219179
0.00219463
0.00219746
0.0022003
0.00220314
0.00220599
0.00220883
0.00221168
0.00221453
0.00221737
0.00222023
0.00222308
0.00222594
0.00222879
0.00223165
0.00223452
0.00223738
0.00224024
0.00224311
0.00224597
0.00224885
0.00225172
0.00225459
0.00225747
0.00226034
0.00226322
0.0022661
0.00226898
0.00227187
0.00227475
0.00227765
0.00228054
0.00228343
0.00228632
0.00228921
0.00229211
0.00229501
0.00229792
0.00230082
0.00230372
0.00230663
0.00230954
0.00231245
0.00231536
0.00231828
0.00232119
0.00232411
0.00232703
0.00232995
0.00233288
0.0023358
0.00233873
0.00234166
0.00234459
0.00234752
0.00235045
0.00235339
0.00235633
0.00235927
0.00236221
0.00236515
0.0023681
0.00237105
0.00237399
0.00237695
0.0023799
0.00238285
0.00238581
0.00238877
0.00239173
0.00239469
0.00239765
0.00240062
0.00240358
0.00240655
0.00240952
0.0024125
0.00241547
0.00241844
0.00242142
0.0024244
0.00242739
0.00243037
0.00243336
0.00243634
0.00243933
0.00244232
0.00244532
0.00244832
0.00245131
0.00245431
0.00245731
0.00246031
0.00246332
0.00246632
0.00246933
0.00247234
0.00247535
0.00247837
0.00248138
0.0024844
0.00248741
0.00249044
0.00249346
0.00249648
0.00249951
0.00250253
0.00250557
0.0025086
0.00251163
0.00251466
0.0025177
0.00252074
0.00252378
0.00252682
0.00252987
0.00253291
0.00253596
0.00253901
0.00254206
0.00254511
0.00254817
0.00255123
0.00255429
0.00255734
0.00256041
0.00256347
0.00256654
0.00256961
0.00257267
0.00257575
0.00257882
0.00258189
0.00258497
0.00258805
0.00259113
0.00259422
0.0025973
0.00260039
0.00260348
0.00260657
0.00260966
0.00261275
0.00261585
0.00261895
0.00262205
0.00262515
0.00262825
0.00263136
0.00263446
0.00263757
0.00264068
0.00264379
0.00264691
0.00265002
0.00265314
0.00265626
0.00265938
0.00266251
0.00266563
0.00266875
0.00267188
0.00267501
0.00267815
0.00268128
0.00268441
0.00268755
0.00269069
0.00269384
0.00269698
0.00270012
0.00270327
0.00270641
0.00270957
0.00271272
0.00271587
0.00271903
0.00272219
0.00272535
0.00272851
0.00273167
0.00273484
0.00273801
0.00274117
0.00274435
0.00274752
0.00275069
0.00275387
0.00275705
0.00276023
0.00276341
0.00276659
0.00276978
0.00277297
0.00277616
0.00277935
0.00278254
0.00278573
0.00278893
0.00279213
0.00279533
0.00279853
0.00280173
0.00280494
0.00280815
0.00281136
0.00281457
0.00281778
0.00282099
0.00282421
0.00282743
0.00283065
0.00283387
0.00283709
0.00284032
0.00284355
0.00284678
0.00285001
0.00285324
0.00285648
0.00285971
0.00286295
0.00286619
0.00286943
0.00287268
0.00287592
0.00287917
0.00288242
0.00288567
0.00288892
0.00289218
0.00289544
0.00289869
0.00290196
0.00290522
0.00290848
0.00291175
0.00291502
0.00291829
0.00292156
0.00292483
0.00292811
0.00293138
0.00293466
0.00293794
0.00294123
0.00294451
0.0029478
0.00295109
0.00295437
0.00295767
0.00296096
0.00296426
0.00296755
0.00297085
0.00297416
0.00297746
0.00298076
0.00298407
0.00298737
0.00299069
0.002994
0.00299731
0.00300062
0.00300394
0.00300726
0.00301058
0.0030139
0.00301723
0.00302055
0.00302389
0.00302721
0.00303054
0.00303388
0.00303721
0.00304055
0.00304389
0.00304724
0.00305057
0.00305392
0.00305727
0.00306062
0.00306397
0.00306732
0.00307067
0.00307403
0.00307739
0.00308075
0.00308411
0.00308747
0.00309084
0.00309421
0.00309758
0.00310094
0.00310432
0.00310769
0.00311107
0.00311445
0.00311782
0.00312121
0.00312459
0.00312798
0.00313136
0.00313475
0.00313814
0.00314153
0.00314493
0.00314833
0.00315172
0.00315512
0.00315852
0.00316193
0.00316533
0.00316874
0.00317215
0.00317556
0.00317897
0.00318239
0.0031858
0.00318922
0.00319264
0.00319606
0.00319948
0.00320291
0.00320633
0.00320976
0.00321319
0.00321663
0.00322007
0.0032235
0.00322694
0.00323038
0.00323382
0.00323727
0.00324071
0.00324416
0.00324761
0.00325106
0.00325452
0.00325797
0.00326143
0.00326488
0.00326835
0.00327181
0.00327527
0.00327874
0.0032822
0.00328568
0.00328915
0.00329262
0.00329609
0.00329957
0.00330305
0.00330653
0.00331001
0.00331349
0.00331698
0.00332047
0.00332396
0.00332745
0.00333094
0.00333444
0.00333794
0.00334143
0.00334493
0.00334843
0.00335194
0.00335545
0.00335895
0.00336246
0.00336597
0.00336949
0.003373
0.00337652
0.00338004
0.00338356
0.00338708
0.00339061
0.00339414
0.00339766
0.00340119
0.00340473
0.00340826
0.0034118
0.00341533
0.00341887
0.00342241
0.00342595
0.0034295
0.00343305
0.00343659
0.00344015
0.0034437
0.00344725
0.00345081
0.00345436
0.00345792
0.00346148
0.00346505
0.00346861
0.00347218
0.00347575
0.00347932
0.00348289
0.00348647
0.00349004
0.00349362
0.0034972
0.00350078
0.00350436
0.00350794
0.00351153
0.00351512
0.00351871
0.0035223
0.00352589
0.00352949
0.00353309
0.00353669
0.00354029
0.00354389
0.0035475
0.0035511
0.00355471
0.00355832
0.00356194
0.00356555
0.00356917
0.00357278
0.00357641
0.00358003
0.00358365
0.00358728
0.0035909
0.00359453
0.00359817
0.0036018
0.00360543
0.00360907
0.00361271
0.00361635
0.00361999
0.00362363
0.00362728
0.00363093
0.00363458
0.00363822
0.00364188
0.00364553
0.00364919
0.00365285
0.0036565
0.00366017
0.00366383
0.0036675
0.00367117
0.00367483
0.0036785
0.00368218
0.00368585
0.00368953
0.0036932
0.00369689
0.00370057
0.00370425
0.00370794
0.00371162
0.00371531
0.003719
0.0037227
0.00372639
0.00373009
0.00373379
0.00373749
0.00374119
0.0037449
0.0037486
0.00375231
0.00375602
0.00375973
0.00376345
0.00376716
0.00377088
0.0037746
0.00377832
0.00378204
0.00378577
0.00378949
0.00379322
0.00379695
0.00380068
0.00380442
0.00380815
0.00381189
0.00381562
0.00381937
0.00382311
0.00382685
0.0038306
0.00383435
0.0038381
0.00384185
0.0038456
0.00384936
0.00385311
0.00385687
0.00386064
0.0038644
0.00386816
0.00387193
0.0038757
0.00387947
0.00388323
0.00388701
0.00389078
0.00389456
0.00389834
0.00390212
0.0039059
0.00390969
0.00391347
0.00391726
0.00392106
0.00392485
0.00392864
0.00393244
0.00393624
0.00394004
0.00394383
0.00394764
0.00395144
0.00395525
0.00395906
0.00396287
0.00396668
0.0039705
0.00397431
0.00397813
0.00398195
0.00398577
0.00398959
0.00399342
0.00399725
0.00400107
0.00400491
0.00400874
0.00401257
0.00401641
0.00402025
0.00402409
0.00402793
0.00403177
0.00403562
0.00403946
0.00404331
0.00404716
0.00405102
0.00405487
0.00405872
0.00406258
0.00406644
0.0040703
0.00407417
0.00407803
0.0040819
0.00408577
0.00408964
0.00409351
0.00409739
0.00410126
0.00410514
0.00410902
0.00411291
0.00411679
0.00412067
0.00412456
0.00412845
0.00413234
0.00413624
0.00414013
0.00414403
0.00414792
0.00415183
0.00415573
0.00415963
0.00416354
0.00416744
0.00417136
0.00417527
0.00417918
0.00418309
0.00418701
0.00419093
0.00419485
0.00419877
0.0042027
0.00420662
0.00421055
0.00421448
0.00421841
0.00422234
0.00422628
0.00423022
0.00423415
0.00423809
0.00424203
0.00424598
0.00424993
0.00425387
0.00425782
0.00426177
0.00426572
0.00426968
0.00427364
0.00427759
0.00428155
0.00428552
0.00428948
0.00429345
0.00429742
0.00430139
0.00430536
0.00430933
0.00431331
0.00431729
0.00432126
0.00432525
0.00432923
0.00433322
0.0043372
0.00434119
0.00434518
0.00434917
0.00435317
0.00435716
0.00436116
0.00436516
0.00436916
0.00437316
0.00437717
0.00438117
0.00438518
0.00438919
0.0043932
0.00439722
0.00440123
0.00440525
0.00440927
0.00441329
0.00441731
0.00442134
0.00442536
0.00442939
0.00443342
0.00443746
0.00444149
0.00444552
0.00444956
0.0044536
0.00445764
0.00446168
0.00446573
0.00446977
0.00447382
0.00447788
0.00448193
0.00448598
0.00449004
0.00449409
0.00449816
0.00450222
0.00450628
0.00451035
0.00451441
0.00451848
0.00452256
0.00452663
0.0045307
0.00453478
0.00453886
0.00454294
0.00454702
0.0045511
0.00455519
0.00455928
0.00456336
0.00456745
0.00457155
0.00457564
0.00457974
0.00458384
0.00458793
0.00459204
0.00459614
0.00460025
0.00460435
0.00460846
0.00461257
0.00461668
0.0046208
0.00462492
0.00462903
0.00463315
0.00463727
0.0046414
0.00464553
0.00464965
0.00465378
0.00465791
0.00466205
0.00466618
0.00467031
0.00467445
0.00467859
0.00468273
0.00468688
0.00469103
0.00469517
0.00469932
0.00470347
0.00470763
0.00471178
0.00471594
0.0047201
0.00472426
0.00472842
0.00473259
0.00473675
0.00474092
0.00474509
0.00474926
0.00475344
0.00475761
0.00476179
0.00476597
0.00477015
0.00477433
0.00477851
0.0047827
0.00478689
0.00479108
0.00479527
0.00479946
0.00480366
0.00480785
0.00481206
0.00481626
0.00482046
0.00482466
0.00482887
0.00483308
0.00483729
0.00484149
0.00484571
0.00484992
0.00485414
0.00485836
0.00486258
0.0048668
0.00487103
0.00487525
0.00487948
0.00488372
0.00488794
0.00489218
0.00489641
0.00490066
0.00490489
0.00490913
0.00491338
0.00491762
0.00492187
0.00492612
0.00493037
0.00493462
0.00493887
0.00494313
0.00494739
0.00495165
0.00495591
0.00496017
0.00496444
0.00496871
0.00497297
0.00497724
0.00498151
0.00498579
0.00499007
0.00499434
0.00499862
0.0050029
0.00500719
0.00501147
0.00501576
0.00502005
0.00502434
0.00502863
0.00503293
0.00503722
0.00504152
0.00504582
0.00505012
0.00505442
0.00505872
0.00506303
0.00506734
0.00507165
0.00507597
0.00508028
0.00508459
0.00508891
0.00509323
0.00509756
0.00510188
0.0051062
0.00511053
0.00511486
0.00511919
0.00512353
0.00512786
0.0051322
0.00513653
0.00514088
0.00514522
0.00514956
0.00515391
0.00515825
0.00516261
0.00516696
0.00517131
0.00517566
0.00518002
0.00518438
0.00518874
0.0051931
0.00519746
0.00520183
0.0052062
0.00521057
0.00521494
0.00521931
0.00522368
0.00522806
0.00523244
0.00523682
0.0052412
0.00524559
0.00524997
0.00525436
0.00525875
0.00526314
0.00526753
0.00527193
0.00527633
0.00528072
0.00528512
0.00528952
0.00529393
0.00529834
0.00530275
0.00530715
0.00531157
0.00531598
0.0053204
0.00532481
0.00532923
0.00533365
0.00533807
0.0053425
0.00534693
0.00535135
0.00535579
0.00536022
0.00536465
0.00536909
0.00537352
0.00537796
0.0053824
0.00538685
0.00539129
0.00539574
0.00540019
0.00540463
0.00540909
0.00541354
0.005418
0.00542245
0.00542691
0.00543138
0.00543584
0.0054403
0.00544477
0.00544923
0.00545371
0.00545818
0.00546265
0.00546713
0.0054716
0.00547608
0.00548057
0.00548505
0.00548953
0.00549402
0.00549851
0.005503
0.00550749
0.00551198
0.00551648
0.00552097
0.00552548
0.00552998
0.00553448
0.00553899
0.00554349
0.005548
0.00555251
0.00555702
0.00556154
0.00556605
0.00557058
0.0055751
0.00557961
0.00558414
0.00558866
0.00559319
0.00559772
0.00560225
0.00560678
0.00561132
0.00561586
0.00562039
0.00562493
0.00562947
0.00563402
0.00563856
0.00564311
0.00564766
0.00565221
0.00565676
0.00566132
0.00566587
0.00567043
0.00567499
0.00567955
0.00568412
0.00568868
0.00569325
0.00569782
0.00570238
0.00570696
0.00571153
0.00571611
0.00572069
0.00572527
0.00572985
0.00573444
0.00573902
0.00574361
0.0057482
0.00575279
0.00575738
0.00576198
0.00576657
0.00577117
0.00577577
0.00578038
0.00578498
0.00578959
0.00579419
0.0057988
0.00580342
0.00580803
0.00581264
0.00581726
0.00582188
0.0058265
0.00583112
0.00583575
0.00584037
0.005845
0.00584963
0.00585426
0.00585889
0.00586353
0.00586817
0.00587281
0.00587745
0.00588209
0.00588673
0.00589138
0.00589603
0.00590068
0.00590533
0.00590998
0.00591463
0.00591929
0.00592395
0.00592861
0.00593327
0.00593794
0.0059426
0.00594728
0.00595195
0.00595662
0.00596129
0.00596597
0.00597065
0.00597533
0.00598
0.00598469
0.00598937
0.00599406
0.00599875
0.00600344
0.00600813
0.00601282
0.00601752
0.00602222
0.00602692
0.00603162
0.00603632
0.00604103
0.00604574
0.00605044
0.00605515
0.00605986
0.00606458
0.0060693