/*--------------------------------*- C++ -*----------------------------------*\
| =========                 |                                                 |
| \\      /  F ield         | OpenFOAM: The Open Source CFD Toolbox           |
|  \\    /   O peration     | Version:  2206                                  |
|   \\  /    A nd           | Website:  www.openfoam.com                      |
|    \\/     M anipulation  |                                                 |
\*---------------------------------------------------------------------------*/
FoamFile
{
    version     2.0;
    format      ascii;
    arch        "LSB;label=32;scalar=64";
    class       volVectorField;
    location    "230";
    object      U;
}
// * * * * * * * * * * * * * * * * * * * * * * * * * * * * * * * * * * * * * //

dimensions      [0 1 -1 0 0 0 0];

internalField   nonuniform List<vector> 
100000
(
(-5.32408e-12 6.30228e-06 1.06475e-12)
(-5.70901e-12 1.16043e-05 1.62511e-13)
(-8.78885e-12 2.12011e-05 1.31217e-13)
(-1.41209e-11 3.15127e-05 1.45678e-13)
(-1.77755e-11 4.08814e-05 8.49955e-14)
(-1.6675e-11 4.31652e-05 7.38393e-14)
(-2.05818e-11 5.27394e-05 1.36803e-13)
(-2.57903e-11 6.3175e-05 1.4699e-13)
(-3.05353e-11 7.35954e-05 1.44291e-13)
(-3.51654e-11 8.30442e-05 8.23494e-14)
(-3.29758e-11 8.5266e-05 7.6497e-14)
(-3.7451e-11 9.48162e-05 1.38973e-13)
(-4.24066e-11 0.000105256 1.44637e-13)
(-4.75527e-11 0.000115684 1.43905e-13)
(-5.18498e-11 0.000125155 8.08812e-14)
(-4.99472e-11 0.000127366 7.6385e-14)
(-5.44074e-11 0.000136904 1.40411e-13)
(-5.91812e-11 0.000147344 1.44021e-13)
(-6.47474e-11 0.000157775 1.43752e-13)
(-6.84379e-11 0.000167257 7.98102e-14)
(-6.73601e-11 0.000169463 7.74089e-14)
(-7.07699e-11 0.000178996 1.40158e-13)
(-7.68777e-11 0.00018944 1.45485e-13)
(-8.08844e-11 0.000199952 1.47131e-13)
(-8.70217e-11 0.00021039 1.43973e-13)
(-9.04541e-11 0.000219879 8.1037e-14)
(-8.93228e-11 0.000222083 7.76674e-14)
(-9.3013e-11 0.00023161 1.42515e-13)
(-9.85953e-11 0.00024205 1.4525e-13)
(-1.03365e-10 0.000252484 1.4435e-13)
(-1.0792e-10 0.000261976 7.9996e-14)
(-1.05869e-10 0.000264179 7.83314e-14)
(-1.10323e-10 0.000273703 1.41984e-13)
(-1.15275e-10 0.000284142 1.45483e-13)
(-1.2056e-10 0.000294577 1.43684e-13)
(-1.24688e-10 0.000304072 8.00587e-14)
(-1.22993e-10 0.000306274 7.81306e-14)
(-1.2716e-10 0.000315797 1.42175e-13)
(-1.32346e-10 0.000326236 1.45163e-13)
(-1.37436e-10 0.000336671 1.43609e-13)
(-1.4172e-10 0.000346167 7.97451e-14)
(-1.39902e-10 0.00034837 7.8289e-14)
(-1.44171e-10 0.00035789 1.42053e-13)
(-1.49275e-10 0.000368329 1.45149e-13)
(-1.54428e-10 0.000378764 1.43347e-13)
(-1.58661e-10 0.000388262 7.968e-14)
(-1.56885e-10 0.000390464 7.8254e-14)
(-1.61125e-10 0.000399984 1.42099e-13)
(-1.66247e-10 0.000410423 1.45008e-13)
(-1.71388e-10 0.000420858 1.43257e-13)
(-1.75623e-10 0.000430357 7.95167e-14)
(-1.73855e-10 0.000432559 7.83309e-14)
(-1.78082e-10 0.000442078 1.42035e-13)
(-1.83225e-10 0.000452516 1.44992e-13)
(-1.88335e-10 0.000462952 1.43084e-13)
(-1.92609e-10 0.000472452 7.94843e-14)
(-1.90792e-10 0.000474654 7.82887e-14)
(-1.95083e-10 0.000484172 1.42094e-13)
(-2.00146e-10 0.00049461 1.44859e-13)
(-2.05352e-10 0.000505046 1.43072e-13)
(-2.09507e-10 0.000514547 7.93099e-14)
(-2.07837e-10 0.000516748 7.84195e-14)
(-2.11951e-10 0.000526265 1.41954e-13)
(-2.17229e-10 0.000536704 1.44965e-13)
(-2.22175e-10 0.00054714 1.42809e-13)
(-2.26643e-10 0.000556641 7.94583e-14)
(-2.24596e-10 0.000558843 7.81824e-14)
(-2.29166e-10 0.000568359 1.42245e-13)
(-2.33893e-10 0.000578798 1.44569e-13)
(-2.39502e-10 0.000589234 1.43161e-13)
(-2.4317e-10 0.000598736 7.88985e-14)
(-2.42087e-10 0.000600937 7.88016e-14)
(-2.45499e-10 0.000610454 1.41547e-13)
(-2.51622e-10 0.000620897 1.46046e-13)
(-2.55628e-10 0.00063141 1.4653e-13)
(-2.61757e-10 0.000641851 1.42755e-13)
(-2.65182e-10 0.000651354 7.98997e-14)
(-2.64072e-10 0.000653555 7.82722e-14)
(-2.67755e-10 0.000663071 1.42775e-13)
(-2.73347e-10 0.000673509 1.44952e-13)
(-2.78099e-10 0.000683945 1.43382e-13)
(-2.82661e-10 0.000693448 7.92319e-14)
(-2.80611e-10 0.00069565 7.87679e-14)
(-2.85073e-10 0.000705165 1.42329e-13)
(-2.9002e-10 0.000715603 1.4524e-13)
(-2.95304e-10 0.000726039 1.43029e-13)
(-2.99425e-10 0.000735542 7.9412e-14)
(-2.97742e-10 0.000737744 7.8574e-14)
(-3.01901e-10 0.000747259 1.42455e-13)
(-3.07099e-10 0.000757697 1.45067e-13)
(-3.12174e-10 0.000768133 1.43066e-13)
(-3.16467e-10 0.000777637 7.92865e-14)
(-3.14641e-10 0.000779838 7.8633e-14)
(-3.18922e-10 0.000789353 1.4238e-13)
(-3.24015e-10 0.000799791 1.45062e-13)
(-3.29179e-10 0.000810227 1.42982e-13)
(-3.33394e-10 0.000819731 7.92634e-14)
(-3.31641e-10 0.000821933 7.86202e-14)
(-3.35854e-10 0.000831447 1.42358e-13)
(-3.41012e-10 0.000841885 1.45031e-13)
(-3.46111e-10 0.000852321 1.42915e-13)
(-3.50393e-10 0.000861825 7.92501e-14)
(-3.48567e-10 0.000864027 7.8585e-14)
(-3.52863e-10 0.000873541 1.42378e-13)
(-3.57927e-10 0.000883979 1.44945e-13)
(-3.63133e-10 0.000894415 1.42931e-13)
(-3.67288e-10 0.00090392 7.91396e-14)
(-3.65615e-10 0.000906121 7.86759e-14)
(-3.69729e-10 0.000915635 1.42245e-13)
(-3.7501e-10 0.000926073 1.45051e-13)
(-3.79955e-10 0.000936509 1.42723e-13)
(-3.84423e-10 0.000946014 7.93093e-14)
(-3.82374e-10 0.000948215 7.8433e-14)
(-3.86943e-10 0.000957729 1.42516e-13)
(-3.91675e-10 0.000968167 1.44677e-13)
(-3.97281e-10 0.000978603 1.43099e-13)
(-4.00952e-10 0.000988108 7.87834e-14)
(-3.99863e-10 0.00099031 7.90324e-14)
(-4.03278e-10 0.000999823 1.4181e-13)
(-4.09402e-10 0.00101027 1.46159e-13)
(-4.13408e-10 0.00102078 1.46462e-13)
(-4.19536e-10 0.00103122 1.4255e-13)
(-4.2296e-10 0.00104073 7.97129e-14)
(-4.21853e-10 0.00104293 7.83926e-14)
(-4.25534e-10 0.00105244 1.42864e-13)
(-4.31129e-10 0.00106288 1.44906e-13)
(-4.35877e-10 0.00107332 1.43215e-13)
(-4.4044e-10 0.00108282 7.90702e-14)
(-4.38391e-10 0.00108502 7.88896e-14)
(-4.42852e-10 0.00109453 1.42421e-13)
(-4.47801e-10 0.00110497 1.4522e-13)
(-4.53083e-10 0.00111541 1.42887e-13)
(-4.57204e-10 0.00112491 7.9281e-14)
(-4.55521e-10 0.00112712 7.86851e-14)
(-4.59682e-10 0.00113663 1.42561e-13)
(-4.64877e-10 0.00114707 1.45055e-13)
(-4.69955e-10 0.0011575 1.42961e-13)
(-4.74244e-10 0.00116701 7.91643e-14)
(-4.72424e-10 0.00116921 7.87538e-14)
(-4.76696e-10 0.00117872 1.42477e-13)
(-4.81802e-10 0.00118916 1.45079e-13)
(-4.86952e-10 0.0011996 1.42882e-13)
(-4.91182e-10 0.0012091 7.91785e-14)
(-4.89409e-10 0.0012113 7.87148e-14)
(-4.93647e-10 0.00122082 1.42486e-13)
(-4.98776e-10 0.00123125 1.45028e-13)
(-5.0391e-10 0.00124169 1.42872e-13)
(-5.08148e-10 0.0012512 7.91345e-14)
(-5.06376e-10 0.0012534 7.87309e-14)
(-5.10605e-10 0.00126291 1.42445e-13)
(-5.15751e-10 0.00127335 1.45029e-13)
(-5.20859e-10 0.00128379 1.42813e-13)
(-5.25133e-10 0.00129329 7.91471e-14)
(-5.23314e-10 0.00129549 7.86868e-14)
(-5.27604e-10 0.001305 1.42473e-13)
(-5.32674e-10 0.00131544 1.44952e-13)
(-5.37876e-10 0.00132588 1.42849e-13)
(-5.42033e-10 0.00133539 7.90512e-14)
(-5.40357e-10 0.00133759 7.87738e-14)
(-5.44474e-10 0.0013471 1.42345e-13)
(-5.49754e-10 0.00135754 1.45065e-13)
(-5.547e-10 0.00136797 1.4266e-13)
(-5.59166e-10 0.00137748 7.92293e-14)
(-5.57118e-10 0.00137968 7.85327e-14)
(-5.61686e-10 0.00138919 1.42615e-13)
(-5.66421e-10 0.00139963 1.44702e-13)
(-5.72024e-10 0.00141007 1.43047e-13)
(-5.75697e-10 0.00141957 7.87168e-14)
(-5.74605e-10 0.00142178 7.91279e-14)
(-5.78022e-10 0.00143129 1.41911e-13)
(-5.84146e-10 0.00144173 1.4619e-13)
(-5.88153e-10 0.00145224 1.46406e-13)
(-5.9428e-10 0.00146269 1.42428e-13)
(-5.97702e-10 0.00147219 7.96092e-14)
(-5.96598e-10 0.00147439 7.84394e-14)
(-6.00278e-10 0.0014839 1.42886e-13)
(-6.05874e-10 0.00149434 1.44861e-13)
(-6.1062e-10 0.00150478 1.43109e-13)
(-6.15184e-10 0.00151429 7.89765e-14)
(-6.13134e-10 0.00151649 7.89391e-14)
(-6.17598e-10 0.001526 1.42447e-13)
(-6.22545e-10 0.00153644 1.45187e-13)
(-6.27827e-10 0.00154687 1.42794e-13)
(-6.31946e-10 0.00155638 7.91989e-14)
(-6.30266e-10 0.00155858 7.87343e-14)
(-6.34424e-10 0.00156809 1.42593e-13)
(-6.39624e-10 0.00157853 1.45031e-13)
(-6.44696e-10 0.00158897 1.42879e-13)
(-6.4899e-10 0.00159847 7.90931e-14)
(-6.47164e-10 0.00160068 7.88003e-14)
(-6.51445e-10 0.00161019 1.42519e-13)
(-6.5654e-10 0.00162062 1.45057e-13)
(-6.61703e-10 0.00163106 1.42821e-13)
(-6.65917e-10 0.00164057 7.91032e-14)
(-6.64164e-10 0.00164277 7.87774e-14)
(-6.68377e-10 0.00165228 1.42512e-13)
(-6.73537e-10 0.00166272 1.45037e-13)
(-6.78634e-10 0.00167316 1.42791e-13)
(-6.82916e-10 0.00168266 7.91045e-14)
(-6.8109e-10 0.00168486 7.8747e-14)
(-6.85385e-10 0.00169438 1.42532e-13)
(-6.90452e-10 0.00170481 1.44974e-13)
(-6.95656e-10 0.00171525 1.42826e-13)
(-6.99812e-10 0.00172476 7.90193e-14)
(-6.98137e-10 0.00172696 7.88297e-14)
(-7.02252e-10 0.00173647 1.4241e-13)
(-7.07534e-10 0.00174691 1.45089e-13)
(-7.1248e-10 0.00175734 1.42645e-13)
(-7.16946e-10 0.00176685 7.9201e-14)
(-7.14897e-10 0.00176905 7.85889e-14)
(-7.19464e-10 0.00177856 1.42681e-13)
(-7.242e-10 0.001789 1.4473e-13)
(-7.29803e-10 0.00179944 1.43039e-13)
(-7.33477e-10 0.00180894 7.86915e-14)
(-7.32383e-10 0.00181115 7.91856e-14)
(-7.35801e-10 0.00182066 1.41976e-13)
(-7.41926e-10 0.0018311 1.46223e-13)
(-7.45932e-10 0.00184161 1.46393e-13)
(-7.52059e-10 0.00185206 1.42384e-13)
(-7.55481e-10 0.00186156 7.95645e-14)
(-7.54378e-10 0.00186376 7.84729e-14)
(-7.58057e-10 0.00187328 1.42911e-13)
(-7.63654e-10 0.00188371 1.44854e-13)
(-7.68399e-10 0.00189415 1.4307e-13)
(-7.72963e-10 0.00190366 7.89379e-14)
(-7.70914e-10 0.00190586 7.89725e-14)
(-7.75376e-10 0.00191537 1.42476e-13)
(-7.80325e-10 0.00192581 1.45185e-13)
(-7.85606e-10 0.00193624 1.4276e-13)
(-7.89726e-10 0.00194575 7.91654e-14)
(-7.88044e-10 0.00194795 7.87669e-14)
(-7.92204e-10 0.00195746 1.42627e-13)
(-7.97401e-10 0.0019679 1.45031e-13)
(-8.02477e-10 0.00197834 1.42855e-13)
(-8.06766e-10 0.00198785 7.90586e-14)
(-8.04947e-10 0.00199005 7.88397e-14)
(-8.0922e-10 0.00199956 1.42548e-13)
(-8.14325e-10 0.00201 1.4507e-13)
(-8.19474e-10 0.00202043 1.42789e-13)
(-8.23705e-10 0.00202994 7.9087e-14)
(-8.21931e-10 0.00203214 7.87992e-14)
(-8.2617e-10 0.00204165 1.42565e-13)
(-8.313e-10 0.00205209 1.45027e-13)
(-8.36433e-10 0.00206253 1.42797e-13)
(-8.40671e-10 0.00207203 7.90512e-14)
(-8.38899e-10 0.00207423 7.88183e-14)
(-8.43128e-10 0.00208375 1.42527e-13)
(-8.48275e-10 0.00209418 1.45039e-13)
(-8.53382e-10 0.00210462 1.4275e-13)
(-8.57656e-10 0.00211413 7.90752e-14)
(-8.55837e-10 0.00211633 7.87728e-14)
(-8.60126e-10 0.00212584 1.42562e-13)
(-8.65198e-10 0.00213628 1.4497e-13)
(-8.70398e-10 0.00214671 1.42799e-13)
(-8.74556e-10 0.00215622 7.89862e-14)
(-8.72879e-10 0.00215842 7.8862e-14)
(-8.76997e-10 0.00216793 1.42437e-13)
(-8.82277e-10 0.00217837 1.45092e-13)
(-8.87224e-10 0.00218881 1.42619e-13)
(-8.91689e-10 0.00219832 7.9174e-14)
(-8.89641e-10 0.00220052 7.86192e-14)
(-8.94207e-10 0.00221003 1.42712e-13)
(-8.98945e-10 0.00222047 1.44734e-13)
(-9.04547e-10 0.0022309 1.43019e-13)
(-9.08221e-10 0.00224041 7.86656e-14)
(-9.07127e-10 0.00224261 7.92182e-14)
(-9.10544e-10 0.00225212 1.42008e-13)
(-9.16669e-10 0.00226257 1.46232e-13)
(-9.20676e-10 0.00227308 1.46369e-13)
(-9.26802e-10 0.00228352 1.42338e-13)
(-9.30224e-10 0.00229303 7.95247e-14)
(-9.29122e-10 0.00229523 7.84891e-14)
(-9.328e-10 0.00230474 1.42915e-13)
(-9.38398e-10 0.00231518 1.44836e-13)
(-9.43141e-10 0.00232561 1.43027e-13)
(-9.47706e-10 0.00233512 7.8903e-14)
(-9.45657e-10 0.00233732 7.8988e-14)
(-9.50121e-10 0.00234683 1.42484e-13)
(-9.55067e-10 0.00235727 1.45169e-13)
(-9.6035e-10 0.00236771 1.42724e-13)
(-9.64468e-10 0.00237722 7.91313e-14)
(-9.62789e-10 0.00237942 7.87858e-14)
(-9.66946e-10 0.00238893 1.42635e-13)
(-9.72147e-10 0.00239937 1.45021e-13)
(-9.77218e-10 0.0024098 1.42818e-13)
(-9.81513e-10 0.00241931 7.90326e-14)
(-9.79687e-10 0.00242151 7.88527e-14)
(-9.83968e-10 0.00243102 1.42566e-13)
(-9.89063e-10 0.00244146 1.45053e-13)
(-9.94225e-10 0.0024519 1.42769e-13)
(-9.98439e-10 0.0024614 7.90485e-14)
(-9.96686e-10 0.00246361 7.88313e-14)
(-1.0009e-09 0.00247312 1.42563e-13)
(-1.00606e-09 0.00248355 1.4504e-13)
(-1.01116e-09 0.00249399 1.42747e-13)
(-1.01544e-09 0.0025035 7.90557e-14)
(-1.01361e-09 0.0025057 7.88018e-14)
(-1.01791e-09 0.00251521 1.42587e-13)
(-1.02297e-09 0.00252565 1.44983e-13)
(-1.02818e-09 0.00253609 1.4279e-13)
(-1.03233e-09 0.00254559 7.89756e-14)
(-1.03066e-09 0.00254779 7.88856e-14)
(-1.03477e-09 0.0025573 1.42468e-13)
(-1.04006e-09 0.00256774 1.45104e-13)
(-1.045e-09 0.00257818 1.42616e-13)
(-1.04947e-09 0.00258769 7.91624e-14)
(-1.04742e-09 0.00258989 7.86452e-14)
(-1.05199e-09 0.0025994 1.42742e-13)
(-1.05672e-09 0.00260984 1.44749e-13)
(-1.06233e-09 0.00262027 1.43017e-13)
(-1.066e-09 0.00262978 7.86562e-14)
(-1.06491e-09 0.00263198 7.92442e-14)
(-1.06832e-09 0.00264149 1.42039e-13)
(-1.07445e-09 0.00265194 1.46248e-13)
(-1.07845e-09 0.00266245 1.46366e-13)
(-1.08458e-09 0.00267289 1.4232e-13)
(-1.088e-09 0.0026824 7.95065e-14)
(-1.0869e-09 0.0026846 7.85047e-14)
(-1.09058e-09 0.00269411 1.42929e-13)
(-1.09618e-09 0.00270455 1.44834e-13)
(-1.10092e-09 0.00271499 1.43012e-13)
(-1.10548e-09 0.00272449 7.8886e-14)
(-1.10344e-09 0.00272669 7.9005e-14)
(-1.1079e-09 0.0027362 1.42499e-13)
(-1.11285e-09 0.00274664 1.45171e-13)
(-1.11813e-09 0.00275708 1.42709e-13)
(-1.12225e-09 0.00276659 7.91181e-14)
(-1.12057e-09 0.00276879 7.88006e-14)
(-1.12473e-09 0.0027783 1.42654e-13)
(-1.12992e-09 0.00278874 1.45021e-13)
(-1.135e-09 0.00279917 1.4281e-13)
(-1.13929e-09 0.00280868 7.90151e-14)
(-1.13747e-09 0.00281088 7.88751e-14)
(-1.14174e-09 0.00282039 1.42578e-13)
(-1.14685e-09 0.00283083 1.45066e-13)
(-1.152e-09 0.00284127 1.42751e-13)
(-1.15623e-09 0.00285078 7.9048e-14)
(-1.15445e-09 0.00285298 7.88353e-14)
(-1.15869e-09 0.00286249 1.42599e-13)
(-1.16382e-09 0.00287292 1.45026e-13)
(-1.16896e-09 0.00288336 1.42765e-13)
(-1.17319e-09 0.00289287 7.90154e-14)
(-1.17142e-09 0.00289507 7.8856e-14)
(-1.17565e-09 0.00290458 1.42563e-13)
(-1.1808e-09 0.00291502 1.45044e-13)
(-1.1859e-09 0.00292546 1.42722e-13)
(-1.19018e-09 0.00293496 7.90435e-14)
(-1.18836e-09 0.00293716 7.88109e-14)
(-1.19265e-09 0.00294668 1.42602e-13)
(-1.19772e-09 0.00295711 1.44977e-13)
(-1.20292e-09 0.00296755 1.42777e-13)
(-1.20708e-09 0.00297706 7.89571e-14)
(-1.2054e-09 0.00297926 7.89017e-14)
(-1.20952e-09 0.00298877 1.42478e-13)
(-1.2148e-09 0.00299921 1.45104e-13)
(-1.21975e-09 0.00300964 1.42601e-13)
(-1.22421e-09 0.00301915 7.91489e-14)
(-1.22216e-09 0.00302135 7.86586e-14)
(-1.22673e-09 0.00303086 1.42757e-13)
(-1.23147e-09 0.0030413 1.44749e-13)
(-1.23707e-09 0.00305174 1.43006e-13)
(-1.24074e-09 0.00306125 7.86417e-14)
(-1.23965e-09 0.00306345 7.92604e-14)
(-1.24307e-09 0.00307296 1.42052e-13)
(-1.24919e-09 0.0030834 1.46251e-13)
(-1.2532e-09 0.00309391 1.46351e-13)
(-1.25932e-09 0.00310436 1.42296e-13)
(-1.26275e-09 0.00311386 7.94847e-14)
(-1.26164e-09 0.00311606 7.85129e-14)
(-1.26532e-09 0.00312558 1.42929e-13)
(-1.27092e-09 0.00313601 1.44824e-13)
(-1.27566e-09 0.00314645 1.42987e-13)
(-1.28023e-09 0.00315596 7.8868e-14)
(-1.27818e-09 0.00315816 7.90112e-14)
(-1.28264e-09 0.00316767 1.42503e-13)
(-1.28759e-09 0.00317811 1.45159e-13)
(-1.29287e-09 0.00318854 1.4269e-13)
(-1.29699e-09 0.00319805 7.90981e-14)
(-1.29531e-09 0.00320025 7.88112e-14)
(-1.29947e-09 0.00320976 1.42655e-13)
(-1.30467e-09 0.0032202 1.45017e-13)
(-1.30974e-09 0.00323064 1.42787e-13)
(-1.31404e-09 0.00324015 7.90033e-14)
(-1.31221e-09 0.00324235 7.88781e-14)
(-1.31649e-09 0.00325186 1.42589e-13)
(-1.32159e-09 0.0032623 1.45051e-13)
(-1.32675e-09 0.00327273 1.42743e-13)
(-1.33096e-09 0.00328224 7.90208e-14)
(-1.32921e-09 0.00328444 7.88588e-14)
(-1.33342e-09 0.00329395 1.42588e-13)
(-1.33858e-09 0.00330439 1.45043e-13)
(-1.34368e-09 0.00331483 1.42724e-13)
(-1.34796e-09 0.00332433 7.90315e-14)
(-1.34613e-09 0.00332654 7.88291e-14)
(-1.35043e-09 0.00333605 1.42615e-13)
(-1.3555e-09 0.00334648 1.44987e-13)
(-1.3607e-09 0.00335692 1.42773e-13)
(-1.36486e-09 0.00336643 7.89526e-14)
(-1.36318e-09 0.00336863 7.89149e-14)
(-1.3673e-09 0.00337814 1.42497e-13)
(-1.37258e-09 0.00338858 1.45112e-13)
(-1.37752e-09 0.00339901 1.426e-13)
(-1.38199e-09 0.00340852 7.9143e-14)
(-1.37994e-09 0.00341072 7.86738e-14)
(-1.38451e-09 0.00342023 1.42775e-13)
(-1.38925e-09 0.00343067 1.44758e-13)
(-1.39485e-09 0.00344111 1.43006e-13)
(-1.39852e-09 0.00345062 7.86371e-14)
(-1.39743e-09 0.00345282 7.92756e-14)
(-1.40085e-09 0.00346233 1.42071e-13)
(-1.40697e-09 0.00347277 1.46262e-13)
(-1.41098e-09 0.00348328 1.4635e-13)
(-1.4171e-09 0.00349373 1.42287e-13)
(-1.42052e-09 0.00350323 7.9475e-14)
(-1.41942e-09 0.00350544 7.85224e-14)
(-1.4231e-09 0.00351495 1.42938e-13)
(-1.4287e-09 0.00352538 1.44824e-13)
(-1.43344e-09 0.00353582 1.4298e-13)
(-1.43801e-09 0.00354533 7.88589e-14)
(-1.43596e-09 0.00354753 7.90216e-14)
(-1.44042e-09 0.00355704 1.42512e-13)
(-1.44537e-09 0.00356748 1.45162e-13)
(-1.45065e-09 0.00357791 1.42682e-13)
(-1.45477e-09 0.00358742 7.90916e-14)
(-1.45309e-09 0.00358962 7.88197e-14)
(-1.45725e-09 0.00359913 1.42668e-13)
(-1.46245e-09 0.00360957 1.45017e-13)
(-1.46752e-09 0.00362001 1.42785e-13)
(-1.47181e-09 0.00362952 7.89922e-14)
(-1.46999e-09 0.00363172 7.88937e-14)
(-1.47426e-09 0.00364123 1.42595e-13)
(-1.47937e-09 0.00365167 1.45062e-13)
(-1.48452e-09 0.0036621 1.4273e-13)
(-1.48875e-09 0.00367161 7.90256e-14)
(-1.48698e-09 0.00367381 7.88561e-14)
(-1.49121e-09 0.00368332 1.42617e-13)
(-1.49635e-09 0.00369376 1.45027e-13)
(-1.50148e-09 0.0037042 1.42746e-13)
(-1.50572e-09 0.0037137 7.89963e-14)
(-1.50394e-09 0.00371591 7.88761e-14)
(-1.50817e-09 0.00372542 1.42584e-13)
(-1.51332e-09 0.00373585 1.45045e-13)
(-1.51843e-09 0.00374629 1.42707e-13)
(-1.5227e-09 0.0037558 7.90247e-14)
(-1.52088e-09 0.003758 7.88334e-14)
(-1.52517e-09 0.00376751 1.42623e-13)
(-1.53024e-09 0.00377795 1.44983e-13)
(-1.53544e-09 0.00378839 1.42763e-13)
(-1.5396e-09 0.00379789 7.89415e-14)
(-1.53792e-09 0.00380009 7.89233e-14)
(-1.54204e-09 0.0038096 1.42503e-13)
(-1.54732e-09 0.00382004 1.4511e-13)
(-1.55227e-09 0.00383048 1.42591e-13)
(-1.55673e-09 0.00383999 7.91334e-14)
(-1.55469e-09 0.00384219 7.86823e-14)
(-1.55925e-09 0.0038517 1.42782e-13)
(-1.56399e-09 0.00386214 1.44758e-13)
(-1.56959e-09 0.00387257 1.42998e-13)
(-1.57327e-09 0.00388208 7.86289e-14)
(-1.57217e-09 0.00388428 7.92837e-14)
(-1.57559e-09 0.00389379 1.42079e-13)
(-1.58171e-09 0.00390424 1.46262e-13)
(-1.58572e-09 0.00391475 1.46342e-13)
(-1.59185e-09 0.00392519 1.4227e-13)
(-1.59527e-09 0.0039347 7.94625e-14)
(-1.59417e-09 0.0039369 7.85256e-14)
(-1.59784e-09 0.00394641 1.42938e-13)
(-1.60344e-09 0.00395685 1.44816e-13)
(-1.60819e-09 0.00396729 1.42965e-13)
(-1.61275e-09 0.00397679 7.88464e-14)
(-1.6107e-09 0.00397899 7.90261e-14)
(-1.61517e-09 0.0039885 1.42512e-13)
(-1.62011e-09 0.00399894 1.45155e-13)
(-1.62539e-09 0.00400938 1.42669e-13)
(-1.62951e-09 0.00401889 7.90797e-14)
(-1.62783e-09 0.00402109 7.88251e-14)
(-1.63199e-09 0.0040306 1.42668e-13)
(-1.63719e-09 0.00404104 1.45013e-13)
(-1.64226e-09 0.00405147 1.4277e-13)
(-1.64656e-09 0.00406098 7.89846e-14)
(-1.64473e-09 0.00406318 7.88945e-14)
(-1.64901e-09 0.00407269 1.42602e-13)
(-1.65411e-09 0.00408313 1.45051e-13)
(-1.65927e-09 0.00409357 1.42727e-13)
(-1.66348e-09 0.00410308 7.90054e-14)
(-1.66173e-09 0.00410528 7.88741e-14)
(-1.66594e-09 0.00411479 1.42604e-13)
(-1.6711e-09 0.00412522 1.45043e-13)
(-1.6762e-09 0.00413566 1.42712e-13)
(-1.68048e-09 0.00414517 7.90156e-14)
(-1.67866e-09 0.00414737 7.88468e-14)
(-1.68295e-09 0.00415688 1.42631e-13)
(-1.68802e-09 0.00416732 1.44991e-13)
(-1.69322e-09 0.00417776 1.4276e-13)
(-1.69738e-09 0.00418726 7.89399e-14)
(-1.6957e-09 0.00418947 7.89314e-14)
(-1.69982e-09 0.00419898 1.42516e-13)
(-1.7051e-09 0.00420941 1.45115e-13)
(-1.71005e-09 0.00421985 1.42592e-13)
(-1.71451e-09 0.00422936 7.91298e-14)
(-1.71246e-09 0.00423156 7.86927e-14)
(-1.71703e-09 0.00424107 1.42794e-13)
(-1.72177e-09 0.00425151 1.44765e-13)
(-1.72737e-09 0.00426194 1.42998e-13)
(-1.73105e-09 0.00427145 7.86266e-14)
(-1.72995e-09 0.00427365 7.92937e-14)
(-1.73337e-09 0.00428316 1.42092e-13)
(-1.73949e-09 0.00429361 1.46269e-13)
(-1.7435e-09 0.00430412 1.46342e-13)
(-1.74963e-09 0.00431456 1.42265e-13)
(-1.75305e-09 0.00432407 7.94568e-14)
(-1.75195e-09 0.00432627 7.8532e-14)
(-1.75562e-09 0.00433578 1.42945e-13)
(-1.76122e-09 0.00434622 1.44817e-13)
(-1.76596e-09 0.00435666 1.42961e-13)
(-1.77053e-09 0.00436616 7.88406e-14)
(-1.76848e-09 0.00436837 7.90335e-14)
(-1.77294e-09 0.00437788 1.42519e-13)
(-1.77789e-09 0.00438831 1.45158e-13)
(-1.78317e-09 0.00439875 1.42664e-13)
(-1.78729e-09 0.00440826 7.90765e-14)
(-1.78561e-09 0.00441046 7.88303e-14)
(-1.78977e-09 0.00441997 1.42678e-13)
(-1.79497e-09 0.00443041 1.45013e-13)
(-1.80004e-09 0.00444084 1.42771e-13)
(-1.80433e-09 0.00445035 7.89762e-14)
(-1.80251e-09 0.00445255 7.89069e-14)
(-1.80679e-09 0.00446206 1.42604e-13)
(-1.81189e-09 0.0044725 1.45062e-13)
(-1.81704e-09 0.00448294 1.42716e-13)
(-1.82127e-09 0.00449245 7.90129e-14)
(-1.8195e-09 0.00449465 7.88679e-14)
(-1.82374e-09 0.00450416 1.42629e-13)
(-1.82887e-09 0.0045146 1.45026e-13)
(-1.834e-09 0.00452503 1.42735e-13)
(-1.83824e-09 0.00453454 7.89826e-14)
(-1.83647e-09 0.00453674 7.88905e-14)
(-1.84069e-09 0.00454625 1.42596e-13)
(-1.84584e-09 0.00455669 1.45048e-13)
(-1.85095e-09 0.00456713 1.42696e-13)
(-1.85522e-09 0.00457663 7.90142e-14)
(-1.8534e-09 0.00457884 7.88462e-14)
(-1.85769e-09 0.00458835 1.42638e-13)
(-1.86277e-09 0.00459878 1.44985e-13)
(-1.86796e-09 0.00460922 1.42756e-13)
(-1.87212e-09 0.00461873 7.893e-14)
(-1.87045e-09 0.00462093 7.89388e-14)
(-1.87456e-09 0.00463044 1.42517e-13)
(-1.87984e-09 0.00464088 1.45116e-13)
(-1.88479e-09 0.00465131 1.42583e-13)
(-1.88926e-09 0.00466082 7.91251e-14)
(-1.88721e-09 0.00466302 7.86961e-14)
(-1.89177e-09 0.00467253 1.428e-13)
(-1.89651e-09 0.00468297 1.44762e-13)
(-1.90211e-09 0.00469341 1.42994e-13)
(-1.90579e-09 0.00470292 7.8619e-14)
(-1.90469e-09 0.00470512 7.93005e-14)
(-1.90811e-09 0.00471463 1.42095e-13)
(-1.91424e-09 0.00472507 1.4627e-13)
(-1.91824e-09 0.00473558 1.46334e-13)
(-1.92437e-09 0.00474603 1.42255e-13)
(-1.92779e-09 0.00475553 7.94463e-14)
(-1.92669e-09 0.00475774 7.85357e-14)
(-1.93037e-09 0.00476725 1.42943e-13)
(-1.93597e-09 0.00477768 1.44812e-13)
(-1.94071e-09 0.00478812 1.42949e-13)
(-1.94527e-09 0.00479763 7.88338e-14)
(-1.94322e-09 0.00479983 7.90341e-14)
(-1.94769e-09 0.00480934 1.4252e-13)
(-1.95263e-09 0.00481978 1.45151e-13)
(-1.95792e-09 0.00483021 1.42656e-13)
(-1.96203e-09 0.00483972 7.90658e-14)
(-1.96036e-09 0.00484192 7.8836e-14)
(-1.96451e-09 0.00485143 1.42675e-13)
(-1.96971e-09 0.00486187 1.45012e-13)
(-1.97478e-09 0.00487231 1.42757e-13)
(-1.97908e-09 0.00488182 7.8974e-14)
(-1.97725e-09 0.00488402 7.89037e-14)
(-1.98153e-09 0.00489353 1.42613e-13)
(-1.98663e-09 0.00490397 1.45049e-13)
(-1.99179e-09 0.0049144 1.42718e-13)
(-1.99601e-09 0.00492391 7.89934e-14)
(-1.99425e-09 0.00492611 7.8886e-14)
(-1.99847e-09 0.00493562 1.42613e-13)
(-2.00363e-09 0.00494606 1.45044e-13)
(-2.00872e-09 0.0049565 1.42702e-13)
(-2.013e-09 0.00496601 7.90068e-14)
(-2.01118e-09 0.00496821 7.88569e-14)
(-2.01547e-09 0.00497772 1.42643e-13)
(-2.02054e-09 0.00498815 1.44992e-13)
(-2.02575e-09 0.00499859 1.42754e-13)
(-2.0299e-09 0.0050081 7.89296e-14)
(-2.02822e-09 0.0050103 7.89443e-14)
(-2.03234e-09 0.00501981 1.42527e-13)
(-2.03762e-09 0.00503025 1.4512e-13)
(-2.04257e-09 0.00504069 1.42585e-13)
(-2.04703e-09 0.00505019 7.91228e-14)
(-2.04499e-09 0.00505239 7.87036e-14)
(-2.04955e-09 0.0050619 1.42808e-13)
(-2.05429e-09 0.00507234 1.44768e-13)
(-2.05989e-09 0.00508278 1.42995e-13)
(-2.06357e-09 0.00509229 7.86177e-14)
(-2.06247e-09 0.00509449 7.93078e-14)
(-2.06589e-09 0.005104 1.42105e-13)
(-2.07201e-09 0.00511444 1.46275e-13)
(-2.07602e-09 0.00512495 1.46335e-13)
(-2.08215e-09 0.0051354 1.42252e-13)
(-2.08557e-09 0.00514491 7.94426e-14)
(-2.08447e-09 0.00514711 7.85404e-14)
(-2.08815e-09 0.00515662 1.42948e-13)
(-2.09374e-09 0.00516705 1.44814e-13)
(-2.09849e-09 0.00517749 1.42947e-13)
(-2.10305e-09 0.005187 7.883e-14)
(-2.101e-09 0.0051892 7.90397e-14)
(-2.10547e-09 0.00519871 1.42525e-13)
(-2.11041e-09 0.00520915 1.45153e-13)
(-2.11569e-09 0.00521959 1.42653e-13)
(-2.11981e-09 0.00522909 7.90642e-14)
(-2.11813e-09 0.00523129 7.88395e-14)
(-2.12229e-09 0.0052408 1.42683e-13)
(-2.12749e-09 0.00525124 1.45012e-13)
(-2.13257e-09 0.00526168 1.42759e-13)
(-2.13685e-09 0.00527119 7.89672e-14)
(-2.13504e-09 0.00527339 7.89141e-14)
(-2.13931e-09 0.0052829 1.42613e-13)
(-2.14441e-09 0.00529334 1.4506e-13)
(-2.14956e-09 0.00530377 1.42708e-13)
(-2.15379e-09 0.00531328 7.90021e-14)
(-2.15202e-09 0.00531548 7.8878e-14)
(-2.15626e-09 0.00532499 1.42636e-13)
(-2.16139e-09 0.00533543 1.45027e-13)
(-2.16652e-09 0.00534587 1.42726e-13)
(-2.17076e-09 0.00535538 7.89752e-14)
(-2.16899e-09 0.00535758 7.88985e-14)
(-2.17322e-09 0.00536709 1.42607e-13)
(-2.17836e-09 0.00537752 1.45048e-13)
(-2.18347e-09 0.00538796 1.42691e-13)
(-2.18774e-09 0.00539747 7.90049e-14)
(-2.18593e-09 0.00539967 7.88572e-14)
(-2.19021e-09 0.00540918 1.42647e-13)
(-2.19529e-09 0.00541962 1.44988e-13)
(-2.20049e-09 0.00543006 1.42749e-13)
(-2.20465e-09 0.00543956 7.89239e-14)
(-2.20297e-09 0.00544177 7.89476e-14)
(-2.20709e-09 0.00545128 1.42529e-13)
(-2.21237e-09 0.00546171 1.45118e-13)
(-2.21731e-09 0.00547215 1.4258e-13)
(-2.22178e-09 0.00548166 7.91171e-14)
(-2.21973e-09 0.00548386 7.87078e-14)
(-2.2243e-09 0.00549337 1.4281e-13)
(-2.22903e-09 0.00550381 1.44768e-13)
(-2.23463e-09 0.00551424 1.42989e-13)
(-2.23831e-09 0.00552375 7.86141e-14)
(-2.23721e-09 0.00552595 7.93103e-14)
(-2.24063e-09 0.00553546 1.42109e-13)
(-2.24676e-09 0.00554591 1.46274e-13)
(-2.25076e-09 0.00555642 1.46331e-13)
(-2.25689e-09 0.00556686 1.42243e-13)
(-2.26031e-09 0.00557637 7.94369e-14)
(-2.25921e-09 0.00557857 7.85406e-14)
(-2.26289e-09 0.00558808 1.42948e-13)
(-2.26849e-09 0.00559852 1.44808e-13)
(-2.27323e-09 0.00560896 1.4294e-13)
(-2.27779e-09 0.00561846 7.88228e-14)
(-2.27575e-09 0.00562067 7.90419e-14)
(-2.28021e-09 0.00563018 1.42524e-13)
(-2.28516e-09 0.00564061 1.4515e-13)
(-2.29044e-09 0.00565105 1.42646e-13)
(-2.29456e-09 0.00566056 7.90581e-14)
(-2.29288e-09 0.00566276 7.88416e-14)
(-2.29703e-09 0.00567227 1.42682e-13)
(-2.30224e-09 0.00568271 1.45009e-13)
(-2.30731e-09 0.00569314 1.4275e-13)
(-2.3116e-09 0.00570265 7.89642e-14)
(-2.30978e-09 0.00570485 7.89124e-14)
(-2.31406e-09 0.00571436 1.42618e-13)
(-2.31915e-09 0.0057248 1.4505e-13)
(-2.32431e-09 0.00573524 1.42709e-13)
(-2.32853e-09 0.00574475 7.8987e-14)
(-2.32677e-09 0.00574695 7.88923e-14)
(-2.33099e-09 0.00575646 1.42622e-13)
(-2.33615e-09 0.0057669 1.45043e-13)
(-2.34125e-09 0.00577733 1.42697e-13)
(-2.34553e-09 0.00578684 7.89983e-14)
(-2.3437e-09 0.00578904 7.88664e-14)
(-2.348e-09 0.00579855 1.4265e-13)
(-2.35306e-09 0.00580899 1.44994e-13)
(-2.35827e-09 0.00581943 1.42747e-13)
(-2.36242e-09 0.00582893 7.89244e-14)
(-2.36075e-09 0.00583114 7.89514e-14)
(-2.36486e-09 0.00584065 1.42537e-13)
(-2.37015e-09 0.00585108 1.4512e-13)
(-2.37509e-09 0.00586152 1.42582e-13)
(-2.37956e-09 0.00587103 7.91154e-14)
(-2.37751e-09 0.00587323 7.87137e-14)
(-2.38207e-09 0.00588274 1.42816e-13)
(-2.38681e-09 0.00589318 1.44772e-13)
(-2.39241e-09 0.00590361 1.4299e-13)
(-2.39609e-09 0.00591312 7.86135e-14)
(-2.39499e-09 0.00591532 7.93157e-14)
(-2.39841e-09 0.00592483 1.42116e-13)
(-2.40454e-09 0.00593528 1.46278e-13)
(-2.40854e-09 0.00594579 1.46332e-13)
(-2.41467e-09 0.00595623 1.42241e-13)
(-2.41809e-09 0.00596574 7.94346e-14)
(-2.41699e-09 0.00596794 7.85441e-14)
(-2.42067e-09 0.00597745 1.42952e-13)
(-2.42627e-09 0.00598789 1.44809e-13)
(-2.43101e-09 0.00599833 1.42939e-13)
(-2.43557e-09 0.00600783 7.882e-14)
(-2.43352e-09 0.00601004 7.90465e-14)
(-2.43799e-09 0.00601955 1.42527e-13)
(-2.44294e-09 0.00602998 1.45152e-13)
(-2.44822e-09 0.00604042 1.42643e-13)
(-2.45234e-09 0.00604993 7.90576e-14)
(-2.45066e-09 0.00605213 7.88438e-14)
(-2.45482e-09 0.00606164 1.42689e-13)
(-2.46001e-09 0.00607208 1.45009e-13)
(-2.46509e-09 0.00608251 1.42753e-13)
(-2.46938e-09 0.00609202 7.89583e-14)
(-2.46756e-09 0.00609422 7.89217e-14)
(-2.47183e-09 0.00610373 1.42616e-13)
(-2.47694e-09 0.00611417 1.4506e-13)
(-2.48209e-09 0.00612461 1.42699e-13)
(-2.48632e-09 0.00613412 7.89966e-14)
(-2.48454e-09 0.00613632 7.8883e-14)
(-2.48878e-09 0.00614583 1.42644e-13)
(-2.49391e-09 0.00615627 1.45026e-13)
(-2.49904e-09 0.0061667 1.42721e-13)
(-2.50328e-09 0.00617621 7.89673e-14)
(-2.50151e-09 0.00617841 7.89068e-14)
(-2.50574e-09 0.00618792 1.42612e-13)
(-2.51089e-09 0.00619836 1.4505e-13)
(-2.51599e-09 0.0062088 1.42684e-13)
(-2.52027e-09 0.00621831 7.90004e-14)
(-2.51845e-09 0.00622051 7.88628e-14)
(-2.52274e-09 0.00623002 1.42655e-13)
(-2.52781e-09 0.00624045 1.44988e-13)
(-2.53301e-09 0.00625089 1.42746e-13)
(-2.53717e-09 0.0062604 7.8917e-14)
(-2.53549e-09 0.0062626 7.89565e-14)
(-2.53961e-09 0.00627211 1.42536e-13)
(-2.54489e-09 0.00628255 1.45121e-13)
(-2.54984e-09 0.00629299 1.42575e-13)
(-2.5543e-09 0.00630249 7.91137e-14)
(-2.55225e-09 0.0063047 7.8714e-14)
(-2.55682e-09 0.0063142 1.4282e-13)
(-2.56156e-09 0.00632464 1.44769e-13)
(-2.56716e-09 0.00633508 1.42988e-13)
(-2.57083e-09 0.00634459 7.86081e-14)
(-2.56974e-09 0.00634679 7.932e-14)
(-2.57315e-09 0.0063563 1.42116e-13)
(-2.57928e-09 0.00636674 1.46279e-13)
(-2.58329e-09 0.00637725 1.46326e-13)
(-2.58941e-09 0.0063877 1.42236e-13)
(-2.59283e-09 0.00639721 7.94275e-14)
(-2.59173e-09 0.00639941 7.85468e-14)
(-2.59541e-09 0.00640892 1.42949e-13)
(-2.60101e-09 0.00641935 1.44807e-13)
(-2.60575e-09 0.00642979 1.4293e-13)
(-2.61032e-09 0.0064393 7.88172e-14)
(-2.60827e-09 0.0064415 7.90453e-14)
(-2.61273e-09 0.00645101 1.42529e-13)
(-2.61768e-09 0.00646145 1.45146e-13)
(-2.62296e-09 0.00647189 1.4264e-13)
(-2.62708e-09 0.00648139 7.90498e-14)
(-2.6254e-09 0.0064836 7.88484e-14)
(-2.62956e-09 0.0064931 1.42685e-13)
(-2.63476e-09 0.00650354 1.4501e-13)