/*--------------------------------*- C++ -*----------------------------------*\
| =========                 |                                                 |
| \\      /  F ield         | OpenFOAM: The Open Source CFD Toolbox           |
|  \\    /   O peration     | Version:  2206                                  |
|   \\  /    A nd           | Website:  www.openfoam.com                      |
|    \\/     M anipulation  |                                                 |
\*---------------------------------------------------------------------------*/
FoamFile
{
    version     2.0;
    format      ascii;
    arch        "LSB;label=32;scalar=64";
    class       volScalarField;
    location    "159";
    object      p;
}
// * * * * * * * * * * * * * * * * * * * * * * * * * * * * * * * * * * * * * //

dimensions      [0 2 -2 0 0 0 0];

internalField   nonuniform List<scalar> 
50000
(
2.9475e-13
3.73665e-09
5.31376e-09
1.16261e-08
2.02081e-08
3.03466e-08
3.79313e-08
5.16611e-08
6.52379e-08
8.42245e-08
1.02472e-07
1.19694e-07
1.42147e-07
1.65012e-07
1.92927e-07
2.20317e-07
2.46475e-07
2.78164e-07
3.09858e-07
3.47166e-07
3.83141e-07
4.19007e-07
4.58839e-07
5.00927e-07
5.45427e-07
5.93724e-07
6.42221e-07
6.89049e-07
7.4164e-07
7.94224e-07
8.52244e-07
9.09342e-07
9.65542e-07
1.02699e-06
1.08877e-06
1.15576e-06
1.22197e-06
1.28719e-06
1.35773e-06
1.42855e-06
1.50462e-06
1.57987e-06
1.65417e-06
1.73376e-06
1.81364e-06
1.89877e-06
1.98308e-06
2.06644e-06
2.15509e-06
2.24404e-06
2.33822e-06
2.43159e-06
2.52401e-06
2.62172e-06
2.71973e-06
2.82298e-06
2.9254e-06
3.02689e-06
3.13366e-06
3.24073e-06
3.35304e-06
3.46451e-06
3.57508e-06
3.69089e-06
3.80705e-06
3.92838e-06
4.04897e-06
4.16851e-06
4.29352e-06
4.41853e-06
4.54922e-06
4.67844e-06
4.80767e-06
4.94081e-06
5.07625e-06
5.21406e-06
5.35571e-06
5.49748e-06
5.63767e-06
5.78358e-06
5.9295e-06
6.08086e-06
6.23124e-06
6.3808e-06
6.53557e-06
6.69068e-06
6.85101e-06
7.01051e-06
7.16909e-06
7.33294e-06
7.4971e-06
7.6665e-06
7.83506e-06
8.0027e-06
8.17561e-06
8.34883e-06
8.52729e-06
8.70491e-06
8.88161e-06
9.06358e-06
9.24586e-06
9.43338e-06
9.62006e-06
9.80582e-06
9.99686e-06
1.01882e-05
1.03848e-05
1.05805e-05
1.07753e-05
1.09754e-05
1.11759e-05
1.13815e-05
1.15863e-05
1.17901e-05
1.19994e-05
1.22087e-05
1.24236e-05
1.26371e-05
1.28506e-05
1.3068e-05
1.32877e-05
1.35098e-05
1.37357e-05
1.39618e-05
1.41862e-05
1.44164e-05
1.46466e-05
1.48822e-05
1.51169e-05
1.53507e-05
1.55897e-05
1.58291e-05
1.60737e-05
1.63175e-05
1.65603e-05
1.68084e-05
1.70569e-05
1.73105e-05
1.75634e-05
1.78153e-05
1.80724e-05
1.83299e-05
1.85927e-05
1.88545e-05
1.91155e-05
1.93818e-05
1.96483e-05
1.99201e-05
2.0191e-05
2.04611e-05
2.07364e-05
2.1012e-05
2.12928e-05
2.15728e-05
2.18519e-05
2.21363e-05
2.24209e-05
2.27109e-05
2.29999e-05
2.32881e-05
2.35815e-05
2.38752e-05
2.41742e-05
2.44724e-05
2.47695e-05
2.50721e-05
2.53747e-05
2.5683e-05
2.59898e-05
2.62966e-05
2.66074e-05
2.69204e-05
2.72358e-05
2.75551e-05
2.78744e-05
2.81922e-05
2.85157e-05
2.88392e-05
2.91682e-05
2.94962e-05
2.98233e-05
3.01557e-05
3.04884e-05
3.08263e-05
3.11634e-05
3.14996e-05
3.1841e-05
3.21828e-05
3.25298e-05
3.28759e-05
3.32212e-05
3.35717e-05
3.39225e-05
3.42786e-05
3.46338e-05
3.49881e-05
3.53476e-05
3.57075e-05
3.60726e-05
3.64369e-05
3.68003e-05
3.71689e-05
3.75378e-05
3.7912e-05
3.82853e-05
3.86578e-05
3.90354e-05
3.94134e-05
3.97967e-05
4.01791e-05
4.05605e-05
4.09474e-05
4.13342e-05
4.17268e-05
4.21179e-05
4.2509e-05
4.2904e-05
4.33013e-05
4.3701e-05
4.41045e-05
4.45081e-05
4.49102e-05
4.53179e-05
4.57257e-05
4.61389e-05
4.65512e-05
4.69626e-05
4.73792e-05
4.77962e-05
4.82184e-05
4.86398e-05
4.90602e-05
4.94859e-05
4.99119e-05
5.03432e-05
5.07736e-05
5.12031e-05
5.16379e-05
5.2073e-05
5.25133e-05
5.29528e-05
5.33914e-05
5.38352e-05
5.42793e-05
5.47287e-05
5.51773e-05
5.56249e-05
5.60778e-05
5.6531e-05
5.69894e-05
5.7447e-05
5.79037e-05
5.83657e-05
5.88279e-05
5.92955e-05
5.97621e-05
6.02279e-05
6.06989e-05
6.11702e-05
6.16468e-05
6.21225e-05
6.25972e-05
6.30775e-05
6.35577e-05
6.40436e-05
6.45279e-05
6.50124e-05
6.55007e-05
6.59913e-05
6.64843e-05
6.69812e-05
6.74781e-05
6.79735e-05
6.84746e-05
6.89757e-05
6.94823e-05
6.99878e-05
7.04926e-05
7.10026e-05
7.15129e-05
7.20284e-05
7.25431e-05
7.30568e-05
7.35759e-05
7.40952e-05
7.46198e-05
7.51436e-05
7.56664e-05
7.61945e-05
7.67229e-05
7.72566e-05
7.77894e-05
7.83213e-05
7.88584e-05
7.93959e-05
7.99386e-05
8.04805e-05
8.10214e-05
8.15677e-05
8.21142e-05
8.2666e-05
8.32169e-05
8.37669e-05
8.43222e-05
8.48778e-05
8.54386e-05
8.59986e-05
8.65577e-05
8.71221e-05
8.76866e-05
8.82568e-05
8.88254e-05
8.93941e-05
8.99667e-05
9.05416e-05
9.11189e-05
9.17e-05
9.22812e-05
9.28609e-05
9.34462e-05
9.40316e-05
9.46224e-05
9.52123e-05
9.58013e-05
9.63955e-05
9.69901e-05
9.75899e-05
9.81888e-05
9.87869e-05
9.93902e-05
9.99938e-05
0.000100603
0.000101211
0.000101818
0.00010243
0.000103043
0.000103661
0.000104278
0.000104894
0.000105515
0.000106137
0.000106764
0.00010739
0.000108015
0.000108646
0.000109277
0.000109913
0.000110548
0.000111182
0.000111822
0.000112462
0.000113107
0.000113751
0.000114394
0.000115043
0.000115692
0.000116346
0.000116999
0.000117652
0.00011831
0.000118967
0.000119631
0.000120293
0.000120955
0.000121621
0.000122289
0.00012296
0.000123634
0.000124309
0.000124982
0.00012566
0.000126339
0.000127023
0.000127706
0.000128389
0.000129076
0.000129764
0.000130457
0.00013115
0.000131841
0.000132538
0.000133234
0.000133937
0.000134638
0.000135338
0.000136044
0.00013675
0.000137461
0.000138172
0.000138881
0.000139596
0.000140311
0.000141031
0.000141751
0.000142469
0.000143193
0.000143917
0.000144647
0.000145375
0.000146103
0.000146836
0.000147569
0.000148307
0.000149045
0.000149782
0.000150524
0.000151266
0.000152013
0.00015276
0.000153506
0.000154256
0.000155009
0.000155764
0.000156522
0.000157281
0.000158038
0.000158801
0.000159564
0.000160333
0.0001611
0.000161867
0.000162639
0.000163411
0.000164188
0.000164965
0.00016574
0.000166521
0.000167302
0.000168089
0.000168874
0.000169659
0.000170449
0.000171239
0.000172035
0.00017283
0.000173623
0.000174422
0.000175222
0.000176026
0.00017683
0.000177633
0.000178441
0.000179249
0.000180063
0.000180876
0.000181688
0.000182505
0.000183322
0.000184145
0.000184967
0.000185788
0.000186614
0.00018744
0.000188272
0.000189103
0.000189933
0.000190768
0.000191604
0.000192445
0.000193284
0.000194124
0.000194968
0.000195813
0.000196662
0.000197514
0.000198366
0.000199216
0.000200073
0.000200929
0.000201791
0.000202652
0.000203511
0.000204377
0.000205242
0.000206113
0.000206983
0.000207852
0.000208726
0.0002096
0.00021048
0.000211359
0.000212237
0.00021312
0.000214004
0.000214893
0.000215781
0.000216668
0.00021756
0.000218453
0.000219351
0.000220248
0.000221144
0.000222046
0.000222947
0.000223854
0.00022476
0.000225666
0.000226576
0.000227487
0.000228403
0.000229318
0.000230232
0.000231152
0.000232072
0.000232997
0.000233921
0.000234845
0.000235772
0.000236703
0.000237635
0.000238571
0.000239508
0.000240443
0.000241383
0.000242324
0.00024327
0.000244215
0.000245159
0.000246108
0.000247058
0.000248013
0.000248967
0.00024992
0.000250879
0.000251838
0.000252802
0.000253765
0.000254727
0.000255695
0.000256663
0.000257636
0.000258608
0.000259579
0.000260556
0.000261533
0.000262515
0.000263497
0.000264477
0.000265463
0.000266449
0.00026744
0.00026843
0.00026942
0.000270414
0.000271409
0.00027241
0.000273409
0.000274408
0.000275412
0.000276416
0.000277425
0.000278434
0.000279441
0.000280454
0.000281467
0.000282486
0.000283503
0.00028452
0.000285541
0.000286565
0.00028759
0.00028862
0.00028965
0.000290678
0.000291712
0.000292746
0.000293785
0.000294823
0.000295861
0.000296904
0.000297947
0.000298995
0.000300043
0.000301089
0.000302141
0.000303193
0.000304251
0.000305307
0.000306363
0.000307424
0.000308485
0.000309551
0.000310617
0.000311681
0.000312751
0.000313822
0.000314897
0.000315972
0.000317046
0.000318125
0.000319204
0.000320288
0.000321372
0.000322455
0.000323543
0.000324631
0.000325725
0.000326818
0.00032791
0.000329007
0.000330104
0.000331207
0.000332309
0.00033341
0.000334515
0.000335623
0.000336733
0.000337847
0.000338961
0.000340074
0.000341192
0.00034231
0.000343433
0.000344556
0.000345678
0.000346805
0.000347932
0.000349065
0.000350197
0.000351327
0.000352463
0.0003536
0.000354742
0.000355882
0.000357022
0.000358167
0.000359313
0.000360464
0.000361613
0.000362762
0.000363917
0.000365071
0.000366231
0.00036739
0.000368548
0.000369711
0.000370875
0.000372043
0.000373211
0.000374379
0.000375551
0.000376723
0.000377901
0.000379078
0.000380255
0.000381436
0.000382618
0.000383805
0.000384991
0.000386176
0.000387366
0.000388557
0.000389753
0.000390948
0.000392143
0.000393342
0.000394543
0.000395746
0.000396953
0.000398161
0.000399366
0.000400578
0.000401789
0.000403006
0.000404222
0.000405437
0.000406658
0.000407878
0.000409104
0.000410329
0.000411553
0.000412783
0.000414013
0.000415248
0.000416482
0.000417715
0.000418953
0.000420192
0.000421436
0.000422679
0.000423922
0.000425169
0.000426417
0.00042767
0.000428922
0.000430174
0.00043143
0.000432687
0.000433949
0.000435211
0.000436471
0.000437737
0.000439003
0.000440274
0.000441544
0.000442814
0.000444089
0.000445364
0.000446644
0.000447923
0.000449202
0.000450485
0.00045177
0.000453058
0.00045435
0.000455641
0.000456931
0.000458227
0.000459523
0.000460824
0.000462124
0.000463424
0.000464728
0.000466033
0.000467343
0.000468653
0.000469961
0.000471275
0.000472589
0.000473908
0.000475226
0.000476544
0.000477867
0.00047919
0.000480518
0.000481845
0.000483172
0.000484504
0.000485836
0.000487173
0.00048851
0.000489845
0.000491186
0.000492527
0.000493874
0.000495219
0.000496564
0.000497914
0.000499264
0.00050062
0.000501974
0.000503328
0.000504687
0.000506046
0.000507411
0.000508775
0.000510137
0.000511506
0.000512874
0.000514248
0.00051562
0.000516992
0.000518369
0.000519747
0.000521128
0.000522513
0.000523898
0.000525281
0.00052667
0.00052806
0.000529454
0.000530848
0.00053224
0.000533638
0.000535037
0.00053644
0.000537843
0.000539244
0.000540652
0.000542059
0.000543471
0.000544883
0.000546294
0.00054771
0.000549126
0.000550548
0.000551969
0.000553389
0.000554814
0.000556239
0.00055767
0.0005591
0.000560529
0.000561963
0.000563397
0.000564837
0.000566276
0.000567714
0.000569157
0.000570601
0.00057205
0.000573498
0.000574945
0.000576397
0.00057785
0.000579308
0.000580764
0.000582221
0.000583682
0.000585145
0.00058661
0.000588079
0.000589548
0.000591016
0.000592489
0.000593962
0.000595441
0.000596919
0.000598396
0.000599878
0.000601361
0.000602849
0.000604335
0.000605821
0.000607313
0.000608804
0.000610301
0.000611797
0.000613292
0.000614793
0.000616293
0.000617799
0.000619304
0.000620808
0.000622318
0.000623827
0.000625342
0.000626857
0.00062837
0.000629888
0.000631407
0.000632931
0.000634454
0.000635976
0.000637504
0.000639032
0.000640565
0.000642097
0.000643628
0.000645165
0.000646702
0.000648244
0.000649785
0.000651326
0.000652871
0.000654417
0.000655969
0.000657519
0.000659069
0.000660623
0.000662179
0.000663737
0.0006653
0.000666862
0.000668423
0.00066999
0.000671557
0.000673129
0.0006747
0.00067627
0.000677846
0.000679422
0.000681003
0.000682583
0.000684162
0.000685747
0.000687332
0.000688922
0.000690511
0.0006921
0.000693693
0.000695287
0.000696887
0.000698485
0.000700082
0.000701685
0.000703288
0.000704897
0.000706504
0.00070811
0.000709722
0.000711334
0.000712952
0.000714568
0.000716184
0.000717805
0.000719426
0.000721052
0.000722678
0.000724302
0.000725932
0.000727562
0.000729198
0.000730832
0.000732467
0.000734105
0.000735745
0.000737388
0.000739035
0.000740682
0.000742327
0.000743978
0.000745629
0.000747285
0.000748941
0.000750595
0.000752255
0.000753915
0.00075558
0.000757245
0.000758909
0.000760578
0.000762247
0.000763921
0.000765595
0.000767267
0.000768945
0.000770624
0.000772307
0.00077399
0.000775671
0.000777358
0.000779046
0.000780738
0.00078243
0.000784121
0.000785817
0.000787513
0.000789215
0.000790916
0.000792615
0.000794321
0.000796026
0.000797737
0.000799447
0.000801155
0.00080287
0.000804584
0.000806304
0.000808023
0.000809741
0.000811464
0.000813187
0.000814917
0.000816644
0.000818372
0.000820103
0.000821837
0.000823573
0.000825313
0.000827053
0.000828792
0.000830536
0.00083228
0.00083403
0.000835779
0.000837527
0.00083928
0.000841033
0.000842792
0.00084455
0.000846307
0.000848069
0.000849832
0.000851599
0.000853366
0.000855132
0.000856903
0.000858675
0.000860452
0.000862228
0.000864003
0.000865783
0.000867564
0.00086935
0.000871135
0.000872919
0.000874708
0.000876498
0.000878293
0.000880087
0.00088188
0.000883679
0.000885477
0.000887281
0.000889085
0.000890887
0.000892694
0.000894502
0.000896315
0.000898127
0.000899939
0.000901755
0.000903573
0.000905393
0.000907218
0.000909042
0.000910865
0.000912693
0.000914522
0.000916356
0.000918189
0.000920021
0.000921859
0.000923696
0.000925539
0.000927381
0.000929223
0.000931069
0.000932916
0.000934768
0.000936619
0.000938469
0.000940325
0.000942181
0.000944042
0.000945902
0.000947761
0.000949626
0.000951491
0.000953361
0.00095523
0.000957099
0.000958972
0.000960846
0.000962726
0.000964604
0.000966481
0.000968364
0.000970247
0.000972135
0.000974023
0.000975909
0.000977801
0.000979693
0.00098159
0.000983487
0.000985382
0.000987283
0.000989184
0.000991091
0.000992996
0.000994901
0.00099681
0.000998722
0.00100064
0.00100255
0.00100447
0.00100639
0.00100831
0.00101023
0.00101216
0.00101408
0.00101601
0.00101794
0.00101987
0.00102181
0.00102374
0.00102568
0.00102762
0.00102956
0.0010315
0.00103345
0.00103539
0.00103734
0.00103929
0.00104124
0.0010432
0.00104515
0.00104711
0.00104907
0.00105103
0.00105299
0.00105495
0.00105692
0.00105889
0.00106086
0.00106283
0.0010648
0.00106678
0.00106876
0.00107074
0.00107272
0.0010747
0.00107668
0.00107867
0.00108066
0.00108265
0.00108464
0.00108663
0.00108863
0.00109063
0.00109263
0.00109463
0.00109663
0.00109864
0.00110064
0.00110265
0.00110466
0.00110667
0.00110869
0.0011107
0.00111272
0.00111474
0.00111676
0.00111879
0.00112081
0.00112284
0.00112487
0.0011269
0.00112893
0.00113096
0.001133
0.00113504
0.00113708
0.00113912
0.00114116
0.00114321
0.00114526
0.0011473
0.00114935
0.00115141
0.00115346
0.00115552
0.00115757
0.00115963
0.00116169
0.00116376
0.00116583
0.00116789
0.00116996
0.00117203
0.0011741
0.00117618
0.00117825
0.00118033
0.00118241
0.00118449
0.00118658
0.00118866
0.00119074
0.00119283
0.00119492
0.00119702
0.00119912
0.00120121
0.00120331
0.00120541
0.00120751
0.00120962
0.00121172
0.00121383
0.00121594
0.00121805
0.00122016
0.00122228
0.00122439
0.00122651
0.00122863
0.00123076
0.00123288
0.001235
0.00123713
0.00123926
0.00124139
0.00124352
0.00124566
0.0012478
0.00124994
0.00125208
0.00125422
0.00125636
0.00125851
0.00126066
0.0012628
0.00126495
0.00126711
0.00126926
0.00127142
0.00127358
0.00127574
0.0012779
0.00128006
0.00128223
0.0012844
0.00128656
0.00128874
0.00129091
0.00129308
0.00129526
0.00129744
0.00129962
0.0013018
0.00130399
0.00130618
0.00130837
0.00131055
0.00131275
0.00131494
0.00131714
0.00131933
0.00132153
0.00132373
0.00132593
0.00132814
0.00133035
0.00133255
0.00133476
0.00133698
0.00133919
0.00134141
0.00134362
0.00134584
0.00134806
0.00135029
0.00135251
0.00135473
0.00135696
0.00135919
0.00136143
0.00136366
0.00136589
0.00136813
0.00137037
0.00137261
0.00137486
0.0013771
0.00137934
0.00138159
0.00138384
0.0013861
0.00138835
0.0013906
0.00139286
0.00139512
0.00139738
0.00139964
0.00140191
0.00140417
0.00140644
0.00140871
0.00141099
0.00141326
0.00141554
0.00141781
0.00142009
0.00142238
0.00142466
0.00142694
0.00142923
0.00143152
0.00143381
0.0014361
0.0014384
0.00144069
0.00144299
0.00144529
0.00144759
0.00144989
0.0014522
0.00145451
0.00145682
0.00145912
0.00146144
0.00146375
0.00146607
0.00146839
0.0014707
0.00147303
0.00147535
0.00147768
0.00148
0.00148233
0.00148466
0.00148699
0.00148933
0.00149167
0.001494
0.00149634
0.00149868
0.00150103
0.00150337
0.00150572
0.00150807
0.00151042
0.00151277
0.00151513
0.00151748
0.00151984
0.0015222
0.00152456
0.00152693
0.00152929
0.00153166
0.00153403
0.0015364
0.00153878
0.00154115
0.00154352
0.0015459
0.00154828
0.00155067
0.00155305
0.00155544
0.00155782
0.00156021
0.00156261
0.001565
0.00156739
0.00156979
0.00157219
0.00157459
0.00157699
0.00157939
0.0015818
0.00158421
0.00158662
0.00158903
0.00159144
0.00159385
0.00159627
0.00159869
0.00160111
0.00160353
0.00160596
0.00160838
0.00161081
0.00161324
0.00161567
0.0016181
0.00162054
0.00162298
0.00162541
0.00162785
0.00163029
0.00163274
0.00163518
0.00163763
0.00164008
0.00164253
0.00164499
0.00164744
0.0016499
0.00165236
0.00165482
0.00165728
0.00165975
0.00166222
0.00166469
0.00166715
0.00166963
0.0016721
0.00167458
0.00167705
0.00167953
0.00168201
0.00168449
0.00168698
0.00168947
0.00169195
0.00169444
0.00169693
0.00169943
0.00170193
0.00170442
0.00170692
0.00170942
0.00171193
0.00171443
0.00171693
0.00171944
0.00172195
0.00172447
0.00172698
0.00172949
0.00173201
0.00173453
0.00173705
0.00173957
0.0017421
0.00174462
0.00174715
0.00174968
0.00175222
0.00175475
0.00175728
0.00175982
0.00176236
0.00176491
0.00176745
0.00176999
0.00177254
0.00177509
0.00177764
0.00178019
0.00178275
0.0017853
0.00178786
0.00179042
0.00179298
0.00179554
0.00179811
0.00180068
0.00180325
0.00180582
0.00180839
0.00181096
0.00181354
0.00181612
0.0018187
0.00182128
0.00182386
0.00182645
0.00182904
0.00183162
0.00183421
0.00183681
0.0018394
0.001842
0.0018446
0.00184719
0.00184979
0.0018524
0.001855
0.00185761
0.00186022
0.00186283
0.00186544
0.00186806
0.00187067
0.00187329
0.00187591
0.00187853
0.00188115
0.00188378
0.00188641
0.00188904
0.00189167
0.0018943
0.00189694
0.00189957
0.00190221
0.00190485
0.00190749
0.00191014
0.00191279
0.00191543
0.00191808
0.00192073
0.00192339
0.00192604
0.0019287
0.00193136
0.00193401
0.00193668
0.00193934
0.00194201
0.00194467
0.00194734
0.00195002
0.00195269
0.00195536
0.00195804
0.00196072
0.0019634
0.00196608
0.00196876
0.00197145
0.00197414
0.00197683
0.00197952
0.00198221
0.00198491
0.0019876
0.0019903
0.001993
0.0019957
0.00199841
0.00200111
0.00200382
0.00200653
0.00200925
0.00201196
0.00201467
0.00201739
0.00202011
0.00202283
0.00202555
0.00202828
0.002031
0.00203373
0.00203646
0.00203919
0.00204193
0.00204466
0.0020474
0.00205014
0.00205288
0.00205562
0.00205837
0.00206112
0.00206386
0.00206661
0.00206936
0.00207212
0.00207488
0.00207763
0.00208039
0.00208315
0.00208591
0.00208868
0.00209145
0.00209421
0.00209698
0.00209975
0.00210253
0.00210531
0.00210808
0.00211086
0.00211364
0.00211642
0.00211921
0.00212199
0.00212478
0.00212757
0.00213037
0.00213316
0.00213595
0.00213875
0.00214155
0.00214435
0.00214716
0.00214996
0.00215277
0.00215557
0.00215838
0.0021612
0.00216401
0.00216683
0.00216965
0.00217247
0.00217529
0.00217811
0.00218094
0.00218376
0.00218659
0.00218942
0.00219226
0.00219509
0.00219793
0.00220076
0.00220361
0.00220645
0.00220929
0.00221213
0.00221498
0.00221783
0.00222068
0.00222353
0.00222639
0.00222924
0.0022321
0.00223496
0.00223782
0.00224068
0.00224355
0.00224642
0.00224929
0.00225216
0.00225503
0.0022579
0.00226078
0.00226366
0.00226653
0.00226942
0.0022723
0.00227519
0.00227807
0.00228096
0.00228385
0.00228674
0.00228964
0.00229254
0.00229544
0.00229833
0.00230124
0.00230414
0.00230705
0.00230996
0.00231286
0.00231578
0.00231869
0.00232161
0.00232452
0.00232744
0.00233036
0.00233328
0.00233621
0.00233913
0.00234206
0.00234499
0.00234792
0.00235085
0.00235379
0.00235672
0.00235966
0.0023626
0.00236555
0.00236849
0.00237143
0.00237438
0.00237733
0.00238028
0.00238324
0.00238619
0.00238915
0.0023921
0.00239507
0.00239803
0.00240099
0.00240396
0.00240692
0.0024099
0.00241287
0.00241584
0.00241881
0.00242179
0.00242477
0.00242775
0.00243073
0.00243372
0.0024367
0.00243969
0.00244268
0.00244568
0.00244867
0.00245166
0.00245466
0.00245766
0.00246066
0.00246366
0.00246667
0.00246967
0.00247268
0.0024757
0.0024787
0.00248172
0.00248473
0.00248775
0.00249077
0.00249379
0.00249681
0.00249984
0.00250287
0.0025059
0.00250892
0.00251196
0.00251499
0.00251803
0.00252106
0.0025241
0.00252714
0.00253018
0.00253323
0.00253628
0.00253932
0.00254237
0.00254542
0.00254848
0.00255154
0.00255459
0.00255765
0.00256071
0.00256378
0.00256684
0.0025699
0.00257297
0.00257604
0.00257911
0.00258219
0.00258527
0.00258834
0.00259142
0.0025945
0.00259759
0.00260068
0.00260376
0.00260685
0.00260994
0.00261303
0.00261613
0.00261922
0.00262232
0.00262542
0.00262852
0.00263163
0.00263473
0.00263784
0.00264095
0.00264406
0.00264717
0.00265028
0.0026534
0.00265652
0.00265964
0.00266276
0.00266588
0.00266901
0.00267213
0.00267527
0.0026784
0.00268153
0.00268466
0.0026878
0.00269094
0.00269408
0.00269721
0.00270036
0.0027035
0.00270665
0.0027098
0.00271295
0.0027161
0.00271926
0.00272241
0.00272557
0.00272873
0.00273189
0.00273506
0.00273822
0.00274139
0.00274456
0.00274773
0.00275091
0.00275408
0.00275726
0.00276044
0.00276362
0.0027668
0.00276998
0.00277317
0.00277636
0.00277955
0.00278274
0.00278593
0.00278913
0.00279232
0.00279552
0.00279872
0.00280192
0.00280513
0.00280834
0.00281154
0.00281475
0.00281796
0.00282118
0.00282439
0.00282761
0.00283082
0.00283404
0.00283727
0.00284049
0.00284372
0.00284694
0.00285017
0.00285341
0.00285664
0.00285987
0.00286311
0.00286635
0.00286959
0.00287283
0.00287607
0.00287932
0.00288257
0.00288582
0.00288907
0.00289233
0.00289558
0.00289884
0.00290209
0.00290536
0.00290862
0.00291188
0.00291515
0.00291842
0.00292169
0.00292496
0.00292823
0.00293151
0.00293479
0.00293807
0.00294135
0.00294463
0.00294791
0.0029512
0.00295449
0.00295778
0.00296107
0.00296437
0.00296766
0.00297096
0.00297426
0.00297756
0.00298086
0.00298416
0.00298747
0.00299078
0.00299409
0.0029974
0.00300071
0.00300403
0.00300735
0.00301067
0.00301399
0.00301731
0.00302064
0.00302396
0.00302729
0.00303062
0.00303395
0.00303729
0.00304062
0.00304396
0.0030473
0.00305064
0.00305398
0.00305733
0.00306068
0.00306403
0.00306738
0.00307073
0.00307409
0.00307744
0.0030808
0.00308416
0.00308752
0.00309089
0.00309425
0.00309761
0.00310098
0.00310435
0.00310773
0.0031111
0.00311448
0.00311786
0.00312124
0.00312462
0.003128
0.00313139
0.00313477
0.00313816
0.00314155
0.00314495
0.00314834
0.00315174
0.00315513
0.00315853
0.00316194
0.00316534
0.00316874
0.00317215
0.00317556
0.00317897
0.00318238
0.0031858
0.00318921
0.00319263
0.00319605
0.00319947
0.00320289
0.00320632
0.00320975
0.00321318
0.00321661
0.00322004
0.00322348
0.00322691
0.00323035
0.00323379
0.00323723
0.00324068
0.00324412
0.00324757
0.00325102
0.00325447
0.00325793
0.00326138
0.00326484
0.0032683
0.00327176
0.00327522
0.00327868
0.00328215
0.00328562
0.00328908
0.00329256
0.00329603
0.00329951
0.00330298
0.00330646
0.00330994
0.00331342
0.00331691
0.00332039
0.00332388
0.00332737
0.00333086
0.00333436
0.00333785
0.00334134
0.00334484
0.00334834
0.00335185
0.00335535
0.00335885
0.00336236
0.00336587
0.00336938
0.0033729
0.00337642
0.00337993
0.00338345
0.00338697
0.0033905
0.00339402
0.00339755
0.00340107
0.0034046
0.00340814
0.00341167
0.00341521
0.00341874
0.00342228
0.00342583
0.00342937
0.00343291
0.00343646
0.00344001
0.00344356
0.00344711
0.00345066
0.00345422
0.00345777
0.00346134
0.0034649
0.00346846
0.00347202
0.00347559
0.00347916
0.00348273
0.0034863
0.00348987
0.00349345
0.00349703
0.00350061
0.00350418
0.00350777
0.00351135
0.00351494
0.00351853
0.00352212
0.00352571
0.0035293
0.0035329
0.0035365
0.00354009
0.00354369
0.0035473
0.0035509
0.00355451
0.00355812
0.00356173
0.00356534
0.00356896
0.00357257
0.00357619
0.00357981
0.00358343
0.00358706
0.00359068
0.00359431
0.00359794
0.00360157
0.0036052
0.00360884
0.00361247
0.00361611
0.00361975
0.00362339
0.00362704
0.00363068
0.00363433
0.00363798
0.00364163
0.00364528
0.00364893
0.00365259
0.00365625
0.00365991
0.00366357
0.00366723
0.0036709
0.00367456
0.00367823
0.0036819
0.00368558
0.00368925
0.00369293
0.0036966
0.00370029
0.00370397
0.00370765
0.00371133
0.00371502
0.00371871
0.0037224
0.0037261
0.00372979
0.00373349
0.00373718
0.00374089
0.00374459
0.00374829
0.003752
0.00375571
0.00375942
0.00376313
0.00376684
0.00377056
0.00377427
0.00377799
0.00378171
0.00378543
0.00378916
0.00379288
0.00379661
0.00380034
0.00380407
0.0038078
0.00381154
0.00381528
0.00381902
0.00382275
0.0038265
0.00383024
0.00383399
0.00383774
0.00384148
0.00384524
0.00384899
0.00385275
0.0038565
0.00386026
0.00386402
0.00386778
0.00387155
0.00387531
0.00387908
0.00388285
0.00388662
0.00389039
0.00389417
0.00389794
0.00390172
0.0039055
0.00390929
0.00391307
0.00391686
0.00392064
0.00392444
0.00392823
0.00393202
0.00393582
0.00393961
0.00394341
0.00394721
0.00395102
0.00395482
0.00395863
0.00396244
0.00396625
0.00397006
0.00397388
0.00397769
0.00398151
0.00398532
0.00398915
0.00399297
0.00399679
0.00400062
0.00400445
0.00400828
0.00401211
0.00401594
0.00401978
0.00402362
0.00402746
0.0040313
0.00403514
0.00403898
0.00404283
0.00404668
0.00405053
0.00405438
0.00405823
0.00406209
0.00406595
0.00406981
0.00407367
0.00407753
0.00408139
0.00408526
0.00408913
0.004093
0.00409687
0.00410075
0.00410462
0.00410851
0.00411239
0.00411626
0.00412015
0.00412403
0.00412792
0.00413181
0.0041357
0.00413959
0.00414349
0.00414739
0.00415128
0.00415518
0.00415908
0.00416299
0.00416689
0.0041708
0.00417471
0.00417862
0.00418253
0.00418645
0.00419036
0.00419428
0.0041982
0.00420212
0.00420605
0.00420997
0.0042139
0.00421783
0.00422176
0.00422569
0.00422963
0.00423356
0.0042375
0.00424144
0.00424538
0.00424932
0.00425327
0.00425721
0.00426116
0.00426512
0.00426907
0.00427302
0.00427698
0.00428093
0.00428489
0.00428886
0.00429282
0.00429679
0.00430076
0.00430472
0.0043087
0.00431267
0.00431664
0.00432062
0.0043246
0.00432858
0.00433257
0.00433655
0.00434053
0.00434452
0.00434851
0.0043525
0.00435649
0.00436049
0.00436449
0.00436849
0.00437249
0.00437649
0.00438049
0.0043845
0.00438851
0.00439252
0.00439653
0.00440054
0.00440455
0.00440857
0.00441259
0.00441661
0.00442063
0.00442466
0.00442868
0.00443271
0.00443674
0.00444077
0.0044448
0.00444884
0.00445288
0.00445691
0.00446095
0.004465
0.00446904
0.00447309
0.00447714
0.00448119
0.00448524
0.00448929
0.00449335
0.00449741
0.00450146
0.00450553
0.00450959
0.00451366
0.00451772
0.00452179
0.00452586
0.00452993
0.00453401
0.00453808
0.00454216
0.00454624
0.00455032
0.0045544
0.00455849
0.00456257
0.00456666
0.00457075
0.00457484
0.00457894
0.00458303
0.00458713
0.00459123
0.00459533
0.00459943
0.00460354
0.00460764
0.00461175
0.00461586
0.00461998
0.00462409
0.0046282
0.00463232
0.00463644
0.00464056
0.00464468
0.00464881
0.00465293
0.00465706
0.00466119
0.00466532
0.00466946
0.00467359
0.00467773
0.00468187
0.00468602
0.00469016
0.0046943
0.00469845
0.0047026
0.00470675
0.0047109
0.00471506
0.00471921
0.00472337
0.00472753
0.00473169
0.00473586
0.00474002
0.00474419
0.00474836
0.00475253
0.0047567
0.00476087
0.00476505
0.00476923
0.00477341
0.00477759
0.00478177
0.00478596
0.00479015
0.00479433
0.00479853
0.00480272
0.00480691
0.00481111
0.00481531
0.00481951
0.00482371
0.00482791
0.00483212
0.00483632
0.00484053
0.00484474
0.00484896
0.00485317
0.00485739
0.0048616
0.00486582
0.00487005
0.00487427
0.0048785
0.00488272
0.00488695
0.00489119
0.00489542
0.00489966
0.00490389
0.00490813
0.00491237
0.00491661
0.00492086
0.0049251
0.00492935
0.0049336
0.00493785
0.00494211
0.00494636
0.00495062
0.00495488
0.00495914
0.0049634
0.00496766
0.00497193
0.0049762
0.00498047
0.00498474
0.00498901
0.00499329
0.00499756
0.00500184
0.00500612
0.0050104
0.00501469
0.00501897
0.00502326
0.00502755
0.00503184
0.00503613
0.00504043
0.00504473
0.00504903
0.00505332
0.00505763
0.00506193
0.00506624
0.00507055
0.00507485
0.00507916
0.00508348
0.00508779
0.00509211
0.00509643
0.00510075
0.00510508
0.0051094
0.00511373
0.00511806
0.00512239
0.00512672
0.00513105
0.00513539
0.00513973
0.00514406
0.00514841
0.00515275
0.00515709
0.00516144
0.00516579
0.00517014
0.00517449
0.00517885
0.0051832
0.00518756
0.00519192
0.00519628
0.00520064
0.00520501
0.00520937
0.00521374
0.00521811
0.00522248
0.00522686
0.00523123
0.00523561
0.00523999
0.00524437
0.00524875
0.00525313
0.00525752
0.00526191
0.0052663
0.00527069
0.00527509
0.00527948
0.00528388
0.00528828
0.00529268
0.00529709
0.00530149
0.0053059
0.00531031
0.00531472
0.00531913
0.00532354
0.00532796
0.00533238
0.0053368
0.00534122
0.00534564
0.00535007
0.0053545
0.00535893
0.00536336
0.00536779
0.00537222
0.00537666
0.0053811
0.00538554
0.00538998
0.00539442
0.00539887
0.00540332
0.00540777
0.00541221
0.00541667
0.00542112
0.00542558
0.00543004
0.0054345
0.00543896
0.00544342
0.00544789
0.00545236
0.00545682
0.00546129
0.00546577
0.00547024
0.00547472
0.00547919
0.00548367
0.00548815
0.00549264
0.00549713
0.00550161
0.0055061
0.00551059
0.00551508
0.00551958
0.00552408
0.00552857
0.00553308
0.00553758
0.00554208
0.00554659
0.0055511
0.00555561
0.00556012
0.00556463
0.00556915
0.00557366
0.00557818
0.0055827
0.00558723
0.00559175
0.00559627
0.0056008
0.00560533
0.00560987
0.0056144
0.00561893
0.00562347
0.00562801
0.00563255
0.00563709
0.00564163
0.00564618
0.00565073
0.00565528
0.00565983
0.00566438
0.00566894
0.00567349
0.00567805
0.00568261
0.00568717
0.00569174
0.0056963
0.00570087
0.00570544
0.00571001
0.00571459
0.00571916
0.00572374
0.00572832
0.0057329
0.00573748
0.00574207
0.00574665
0.00575124
0.00575583
0.00576042
0.00576502
0.00576961
0.00577421
0.00577881
0.00578341
0.00578802
0.00579262
0.00579723
0.00580184
0.00580644
0.00581106
0.00581567
0.00582029
0.00582491
0.00582952
0.00583414
0.00583877
0.00584339
0.00584802
0.00585265
0.00585728
0.00586191
0.00586655
0.00587118
0.00587582
0.00588046
0.0058851
0.00588974
0.00589439
0.00589903
0.00590368
0.00590833
0.00591298
0.00591764
0.00592229
0.00592695
0.00593161
0.00593627
0.00594093
0.0059456
0.00595026
0.00595493
0.0059596
0.00596428
0.00596895
0.00597363
0.00597831
0.00598299
0.00598767
0.00599235
0.00599704
0.00600173
0.00600641
0.00601111
0.0060158
0.00602049
0.00602519
0.00602989
0.00603459
0.00603929
0.00604399
0.0060487
0.0060534
0.00605812
0.00606283