/*--------------------------------*- C++ -*----------------------------------*\
| =========                 |                                                 |
| \\      /  F ield         | OpenFOAM: The Open Source CFD Toolbox           |
|  \\    /   O peration     | Version:  2206                                  |
|   \\  /    A nd           | Website:  www.openfoam.com                      |
|    \\/     M anipulation  |                                                 |
\*---------------------------------------------------------------------------*/
FoamFile
{
    version     2.0;
    format      ascii;
    arch        "LSB;label=32;scalar=64";
    class       surfaceScalarField;
    location    "159";
    object      phi;
}
// * * * * * * * * * * * * * * * * * * * * * * * * * * * * * * * * * * * * * //

dimensions      [0 3 -1 0 0 0 0];

oriented        oriented;

internalField   nonuniform List<scalar> 
94990
(
-4.60597e-16
4.56235e-16
-1.03312e-15
5.79797e-16
-2.85597e-15
1.82232e-15
-5.46829e-15
2.61779e-15
-7.4484e-15
1.97426e-15
-9.31713e-15
1.87135e-15
-1.39877e-14
4.66937e-15
-1.92509e-14
5.26412e-15
-2.56453e-14
6.39499e-15
-2.9442e-14
3.79814e-15
-3.32836e-14
3.84117e-15
-4.15706e-14
8.28842e-15
-5.04083e-14
8.8376e-15
-6.04363e-14
1.00289e-14
-6.61747e-14
5.73848e-15
-7.18872e-14
5.7132e-15
-8.38886e-14
1.20015e-14
-9.61973e-14
1.23092e-14
-1.09981e-13
1.37843e-14
-1.17499e-13
7.51793e-15
-1.25315e-13
7.81652e-15
-1.40692e-13
1.53775e-14
-1.57053e-13
1.63605e-14
-1.74344e-13
1.7291e-14
-1.92322e-13
1.79788e-14
-2.02567e-13
1.02448e-14
-2.12435e-13
9.86813e-15
-2.32771e-13
2.03365e-14
-2.52995e-13
2.02243e-14
-2.75016e-13
2.20207e-14
-2.86904e-13
1.18881e-14
-2.98866e-13
1.19629e-14
-3.22741e-13
2.38749e-14
-3.46588e-13
2.3847e-14
-3.72213e-13
2.56255e-14
-3.86055e-13
1.38414e-14
-3.99895e-13
1.38404e-14
-4.27461e-13
2.75658e-14
-4.54823e-13
2.73627e-14
-4.84128e-13
2.93051e-14
-4.99871e-13
1.57425e-14
-5.15625e-13
1.57544e-14
-5.46856e-13
3.12311e-14
-5.77752e-13
3.08963e-14
-6.10724e-13
3.29723e-14
-6.28377e-13
1.76524e-14
-6.46039e-13
1.76624e-14
-6.8094e-13
3.49006e-14
-7.15366e-13
3.44269e-14
-7.52008e-13
3.66416e-14
-7.71568e-13
1.95607e-14
-7.9114e-13
1.95716e-14
-8.29709e-13
3.85691e-14
-8.67667e-13
3.79585e-14
-9.07977e-13
4.03096e-14
-9.29448e-13
2.14706e-14
-9.50926e-13
2.14786e-14
-9.93167e-13
4.22407e-14
-1.03465e-12
4.14855e-14
-1.07864e-12
4.39845e-14
-1.10201e-12
2.33704e-14
-1.12541e-12
2.34008e-14
-1.1713e-12
4.58897e-14
-1.21634e-12
4.5046e-14
-1.26395e-12
4.76096e-14
-1.2893e-12
2.53443e-14
-1.31451e-12
2.52127e-14
-1.36421e-12
4.97027e-14
-1.41258e-12
4.83631e-14
-1.46417e-12
5.15963e-14
-1.49095e-12
2.67811e-14
-1.51878e-12
2.78235e-14
-1.57112e-12
5.23418e-14
-1.62477e-12
5.36526e-14
-1.67935e-12
5.45828e-14
-1.7343e-12
5.49431e-14
-1.76455e-12
3.02522e-14
-1.79368e-12
2.91314e-14
-1.85183e-12
5.81486e-14
-1.90811e-12
5.62772e-14
-1.96783e-12
5.97227e-14
-1.99921e-12
3.13872e-14
-2.03079e-12
3.15725e-14
-2.09224e-12
6.14507e-14
-2.1523e-12
6.00608e-14
-2.21552e-12
6.32176e-14
-2.24893e-12
3.34158e-14
-2.28233e-12
3.33989e-14
-2.34751e-12
6.51764e-14
-2.41106e-12
6.35527e-14
-2.47797e-12
6.69134e-14
-2.51328e-12
3.53061e-14
-2.5486e-12
3.53204e-14
-2.61744e-12
6.88366e-14
-2.68453e-12
6.70897e-14
-2.7551e-12
7.05783e-14
-2.79232e-12
3.72174e-14
-2.82955e-12
3.72278e-14
-2.90205e-12
7.25061e-14
-2.97268e-12
7.06208e-14
-3.04692e-12
7.42464e-14
-3.08605e-12
3.91279e-14
-3.12518e-12
3.91336e-14
-3.20136e-12
7.61796e-14
-3.27551e-12
7.41447e-14
-3.35343e-12
7.79258e-14
-3.39445e-12
4.1021e-14
-3.43552e-12
4.10657e-14
-3.51533e-12
7.98141e-14
-3.59306e-12
7.77266e-14
-3.67458e-12
8.15194e-14
-3.71762e-12
4.30411e-14
-3.76043e-12
4.28101e-14
-3.84416e-12
8.3726e-14
-3.92506e-12
8.08984e-14
-4.01077e-12
8.57192e-14
-4.05494e-12
4.41655e-14
-4.10082e-12
4.58799e-14
-4.18652e-12
8.56994e-14
-4.27382e-12
8.73059e-14
-4.36206e-12
8.82361e-14
-4.45036e-12
8.83009e-14
-4.49867e-12
4.83089e-14
-4.54519e-12
4.65156e-14
-4.63746e-12
9.22712e-14
-4.72627e-12
8.88125e-14
-4.82002e-12
9.37462e-14
-4.869e-12
4.89849e-14
-4.91827e-12
4.92691e-14
-5.01363e-12
9.53603e-14
-5.10637e-12
9.27414e-14
-5.20351e-12
9.71421e-14
-5.25459e-12
5.10811e-14
-5.30564e-12
5.10494e-14
-5.40476e-12
9.91174e-14
-5.50097e-12
9.62119e-14
-5.60182e-12
1.00852e-13
-5.65479e-12
5.29614e-14
-5.70776e-12
5.29778e-14
-5.81054e-12
1.02773e-13
-5.91029e-12
9.97521e-14
-6.0148e-12
1.04515e-13
-6.06968e-12
5.48746e-14
-6.12456e-12
5.48835e-14
-6.23101e-12
1.06444e-13
-6.33429e-12
1.03282e-13
-6.44247e-12
1.08185e-13
-6.49925e-12
5.67822e-14
-6.55605e-12
5.67936e-14
-6.66616e-12
1.10111e-13
-6.77297e-12
1.06814e-13
-6.88482e-12
1.11852e-13
-6.94352e-12
5.86945e-14
-7.00222e-12
5.86974e-14
-7.116e-12
1.13788e-13
-7.22634e-12
1.10335e-13
-7.34187e-12
1.15536e-13
-7.40245e-12
6.058e-14
-7.46309e-12
6.06406e-14
-7.5805e-12
1.17406e-13
-7.69444e-12
1.1394e-13
-7.81354e-12
1.19095e-13
-7.87619e-12
6.26511e-14
-7.9385e-12
6.23101e-14
-8.05992e-12
1.21427e-13
-8.17687e-12
1.16951e-13
-8.30041e-12
1.23531e-13
-8.36383e-12
6.34294e-14
-8.42972e-12
6.58885e-14
-8.55239e-12
1.22663e-13
-8.67698e-12
1.24597e-13
-8.80251e-12
1.25527e-13
-8.92778e-12
1.25265e-13
-8.99609e-12
6.83177e-14
-9.06187e-12
6.57792e-14
-9.19195e-12
1.30083e-13
-9.31682e-12
1.24865e-13
-9.44827e-12
1.31448e-13
-9.51675e-12
6.84853e-14
-9.58563e-12
6.88788e-14
-9.71857e-12
1.32936e-13
-9.84752e-12
1.28955e-13
-9.98226e-12
1.34734e-13
-1.00529e-11
7.06562e-14
-1.01235e-11
7.06081e-14
-1.02602e-11
1.36728e-13
-1.03926e-11
1.32402e-13
-1.05311e-11
1.38461e-13
-1.06036e-11
7.25256e-14
-1.06762e-11
7.25439e-14
-1.08166e-11
1.40378e-13
-1.09525e-11
1.35945e-13
-1.10946e-11
1.42121e-13
-1.11691e-11
7.44398e-14
-1.12435e-11
7.44496e-14
-1.13876e-11
1.44048e-13
-1.1527e-11
1.39476e-13
-1.16728e-11
1.45788e-13
-1.17492e-11
7.6352e-14
-1.18255e-11
7.63526e-14
-1.19733e-11
1.47726e-13
-1.21162e-11
1.42994e-13
-1.22657e-11
1.49478e-13
-1.2344e-11
7.82309e-14
-1.24223e-11
7.83056e-14
-1.25736e-11
1.5133e-13
-1.27202e-11
1.46621e-13
-1.28732e-11
1.53005e-13
-1.29536e-11
8.03481e-14
-1.30335e-11
7.99076e-14
-1.31889e-11
1.55451e-13
-1.33384e-11
1.49486e-13
-1.34961e-11
1.57654e-13
-1.35769e-11
8.08139e-14
-1.36608e-11
8.3945e-14
-1.38168e-11
1.56021e-13
-1.39751e-11
1.58251e-13
-1.41343e-11
1.59181e-13
-1.42929e-11
1.58623e-13
-1.43793e-11
8.63746e-14
-1.44624e-11
8.31634e-14
-1.46266e-11
1.64205e-13
-1.4784e-11
1.574e-13
-1.49495e-11
1.65471e-13
-1.50356e-11
8.60833e-14
-1.51222e-11
8.65753e-14
-1.5289e-11
1.66845e-13
-1.54506e-11
1.61635e-13
-1.56193e-11
1.68659e-13
-1.57076e-11
8.83217e-14
-1.57959e-11
8.82586e-14
-1.59666e-11
1.70668e-13
-1.61316e-11
1.65061e-13
-1.6304e-11
1.724e-13
-1.63942e-11
9.01811e-14
-1.64844e-11
9.02013e-14
-1.66587e-11
1.74314e-13
-1.68273e-11
1.68608e-13
-1.70034e-11
1.76058e-13
-1.70955e-11
9.20974e-14
-1.71876e-11
9.21049e-14
-1.73656e-11
1.77987e-13
-1.75377e-11
1.72136e-13
-1.77174e-11
1.79729e-13
-1.78114e-11
9.40044e-14
-1.79055e-11
9.40156e-14
-1.80871e-11
1.81653e-13
-1.82628e-11
1.7567e-13
-1.84462e-11
1.83394e-13
-1.85421e-11
9.59188e-14
-1.8638e-11
9.59163e-14
-1.88233e-11
1.85334e-13
-1.90025e-11
1.79183e-13
-1.91896e-11
1.87088e-13
-1.92874e-11
9.779e-14
-1.93853e-11
9.78804e-14
-1.95742e-11
1.88922e-13
-1.9757e-11
1.82834e-13
-1.99476e-11
1.90581e-13
-2.00476e-11
9.99582e-14
-2.0147e-11
9.94077e-14
-2.03401e-11
1.93152e-13
-2.05257e-11
1.85539e-13
-2.07211e-11
1.95466e-13
-2.08212e-11
1.00078e-13
-2.09252e-11
1.03954e-13
-2.11181e-11
1.92984e-13
-2.13137e-11
1.95542e-13
-2.15102e-11
1.96472e-13
-2.17057e-11
1.95587e-13
-2.18121e-11
1.06384e-13
-2.19146e-11
1.02427e-13
-2.21166e-11
2.02017e-13
-2.231e-11
1.93453e-13
-2.25132e-11
2.03173e-13
-2.26188e-11
1.05584e-13
-2.2725e-11
1.06185e-13
-2.29294e-11
2.04421e-13
-2.31272e-11
1.97849e-13
-2.33335e-11
2.06251e-13
-2.34414e-11
1.07897e-13
-2.35492e-11
1.07817e-13
-2.37575e-11
2.08279e-13
-2.39587e-11
2.01251e-13
-2.41687e-11
2.10008e-13
-2.42785e-11
1.09745e-13
-2.43883e-11
1.09767e-13
-2.46002e-11
2.11919e-13
-2.4805e-11
2.04801e-13
-2.50186e-11
2.13664e-13
-2.51303e-11
1.11662e-13
-2.5242e-11
1.11671e-13
-2.54576e-11
2.1559e-13
-2.56659e-11
2.08332e-13
-2.58832e-11
2.17331e-13
-2.59968e-11
1.13576e-13
-2.61104e-11
1.13572e-13
-2.63296e-11
2.19273e-13
-2.65415e-11
2.11843e-13
-2.67625e-11
2.21029e-13
-2.6878e-11
1.15441e-13
-2.69935e-11
1.15545e-13
-2.72163e-11
2.22846e-13
-2.74319e-11
2.15515e-13
-2.76564e-11
2.24491e-13
-2.7774e-11
1.17655e-13
-2.7891e-11
1.17005e-13
-2.81182e-11
2.27175e-13
-2.83363e-11
2.18074e-13
-2.85658e-11
2.29588e-13
-2.86833e-11
1.17463e-13
-2.88053e-11
1.2201e-13
-2.90317e-11
2.26342e-13
-2.92609e-11
2.29195e-13
-2.9491e-11
2.30125e-13
-2.97199e-11
2.28945e-13
-2.98444e-11
1.24441e-13
-2.99642e-11
1.19811e-13
-3.02003e-11
2.36139e-13
-3.04263e-11
2.25988e-13
-3.06635e-11
2.37197e-13
-3.07867e-11
1.23182e-13
-3.09106e-11
1.23881e-13
-3.11489e-11
2.3833e-13
-3.13794e-11
2.30529e-13
-3.16196e-11
2.40175e-13
-3.17452e-11
1.25563e-13
-3.18706e-11
1.25468e-13
-3.21128e-11
2.42219e-13
-3.23468e-11
2.3391e-13
-3.25907e-11
2.43947e-13
-3.27181e-11
1.27401e-13
-3.28455e-11
1.27425e-13
-3.30914e-11
2.45855e-13
-3.33288e-11
2.37463e-13
-3.35764e-11
2.476e-13
-3.37058e-11
1.29321e-13
-3.38351e-11
1.29326e-13
-3.40846e-11
2.49529e-13
-3.43256e-11
2.4099e-13
-3.45769e-11
2.51272e-13
-3.47081e-11
1.31227e-13
-3.48393e-11
1.31238e-13
-3.50925e-11
2.53195e-13
-3.53371e-11
2.44525e-13
-3.5592e-11
2.54936e-13
-3.57251e-11
1.33143e-13
-3.58583e-11
1.33135e-13
-3.61152e-11
2.5688e-13
-3.63632e-11
2.48032e-13
-3.66218e-11
2.5864e-13
-3.67568e-11
1.35e-13
-3.6892e-11
1.3512e-13
-3.71524e-11
2.60437e-13
-3.74041e-11
2.51728e-13
-3.76662e-11
2.62067e-13
-3.78034e-11
1.37265e-13
-3.794e-11
1.36505e-13
-3.82048e-11
2.64876e-13
-3.8459e-11
2.54127e-13
-3.87264e-11
2.674e-13
-3.88631e-11
1.36727e-13
-3.90051e-11
1.42019e-13
-3.92684e-11
2.63305e-13
-3.95349e-11
2.66486e-13
-3.98023e-11
2.67417e-13
-4.00682e-11
2.65909e-13
-4.02127e-11
1.4445e-13
-4.03517e-11
1.39074e-13
-4.06257e-11
2.7395e-13
-4.08877e-11
2.62041e-13
-4.11626e-11
2.74898e-13
-4.13053e-11
1.42682e-13
-4.14488e-11
1.43491e-13
-4.17247e-11
2.75905e-13
-4.19915e-11
2.66743e-13
-4.22692e-11
2.77767e-13
-4.24144e-11
1.45138e-13
-4.25594e-11
1.45026e-13
-4.28392e-11
2.79829e-13
-4.31093e-11
2.701e-13
-4.33909e-11
2.81555e-13
-4.35378e-11
1.46966e-13
-4.36848e-11
1.4699e-13
-4.39683e-11
2.83461e-13
-4.42419e-11
2.73656e-13
-4.45271e-11
2.85207e-13
-4.4676e-11
1.48885e-13
-4.48249e-11
1.48893e-13
-4.51121e-11
2.87132e-13
-4.53892e-11
2.77187e-13
-4.56781e-11
2.88873e-13
-4.58289e-11
1.50801e-13
-4.59797e-11
1.5079e-13
-4.62705e-11
2.90819e-13
-4.65512e-11
2.80692e-13
-4.68438e-11
2.92581e-13
-4.69964e-11
1.52651e-13
-4.71492e-11
1.52785e-13
-4.74436e-11
2.94361e-13
-4.7728e-11
2.84409e-13
-4.8024e-11
2.95976e-13
-4.81789e-11
1.54963e-13
-4.8333e-11
1.54103e-13
-4.86319e-11
2.98899e-13
-4.89186e-11
2.86662e-13
-4.92201e-11
3.01523e-13
-4.93742e-11
1.54111e-13
-4.95343e-11
1.60075e-13
-4.9831e-11
2.96662e-13
-5.01311e-11
3.0014e-13
-5.04322e-11
3.0107e-13
-5.07314e-11
2.99267e-13
-5.0894e-11
1.62507e-13
-5.10504e-11
1.56458e-13
-5.13585e-11
3.08072e-13
-5.16531e-11
2.94576e-13
-5.1962e-11
3.08922e-13
-5.21223e-11
1.60281e-13
-5.22835e-11
1.61187e-13
-5.25933e-11
3.09815e-13
-5.28927e-11
2.99423e-13
-5.32044e-11
3.11692e-13
-5.33672e-11
1.62804e-13
-5.35299e-11
1.62677e-13
-5.38436e-11
3.1377e-13
-5.41464e-11
3.02759e-13
-5.44619e-11
3.15494e-13
-5.46265e-11
1.64621e-13
-5.47912e-11
1.64648e-13
-5.51085e-11
3.17396e-13
-5.54149e-11
3.06319e-13
-5.5734e-11
3.19143e-13
-5.59006e-11
1.66544e-13
-5.60671e-11
1.66547e-13
-5.63882e-11
3.21072e-13
-5.6698e-11
3.09845e-13
-5.70208e-11
3.22816e-13
-5.71893e-11
1.68449e-13
-5.73577e-11
1.68459e-13
-5.76825e-11
3.24737e-13
-5.79959e-11
3.13381e-13
-5.83223e-11
3.26478e-13
-5.84927e-11
1.70368e-13
-5.86631e-11
1.70354e-13
-5.89915e-11
3.28426e-13
-5.93084e-11
3.16881e-13
-5.96386e-11
3.30192e-13
-5.98108e-11
1.72211e-13
-5.99831e-11
1.7236e-13
-6.03151e-11
3.31952e-13
-6.06357e-11
3.20622e-13
-6.09693e-11
3.33552e-13
-6.11438e-11
1.74573e-13
-6.13174e-11
1.73602e-13
-6.1654e-11
3.366e-13
-6.19767e-11
3.22715e-13
-6.23161e-11
3.39335e-13
-6.24895e-11
1.73376e-13
-6.26695e-11
1.80083e-13
-6.30032e-11
3.33626e-13
-6.33406e-11
3.37431e-13
-6.3679e-11
3.38361e-13
-6.40152e-11
3.36231e-13
-6.41977e-11
1.82516e-13
-6.43734e-11
1.75722e-13
-6.47193e-11
3.45884e-13
-6.50499e-11
3.30629e-13
-6.53966e-11
3.46624e-13
-6.55763e-11
1.79781e-13
-6.57571e-11
1.80797e-13
-6.61045e-11
3.4739e-13
-6.64402e-11
3.35637e-13
-6.67894e-11
3.49284e-13
-6.69718e-11
1.82379e-13
-6.71541e-11
1.82235e-13
-6.75054e-11
3.5138e-13
-6.78444e-11
3.38949e-13
-6.81975e-11
3.53103e-13
-6.83817e-11
1.84186e-13
-6.85659e-11
1.84213e-13
-6.89209e-11
3.55001e-13
-6.92634e-11
3.42511e-13
-6.96201e-11
3.5675e-13
-6.98063e-11
1.86108e-13
-6.99924e-11
1.86114e-13
-7.0351e-11
3.58674e-13
-7.06971e-11
3.46043e-13
-7.10575e-11
3.60415e-13
-7.12455e-11
1.88026e-13
-7.14335e-11
1.88009e-13
-7.17959e-11
3.62365e-13
-7.21454e-11
3.4954e-13
-7.25096e-11
3.64133e-13
-7.26994e-11
1.89862e-13
-7.28895e-11
1.90025e-13
-7.32553e-11
3.65876e-13
-7.36086e-11
3.53303e-13
-7.39761e-11
3.67463e-13
-7.41684e-11
1.9227e-13
-7.43596e-11
1.912e-13
-7.47302e-11
3.70623e-13
-7.50854e-11
3.5525e-13
-7.54589e-11
3.73458e-13
-7.56497e-11
1.90761e-13
-7.58478e-11
1.9814e-13
-7.62148e-11
3.66983e-13
-7.65859e-11
3.71084e-13
-7.69579e-11
3.72014e-13
-7.73275e-11
3.69589e-13
-7.7528e-11
2.00573e-13
-7.77211e-11
1.93106e-13
-7.81012e-11
3.80006e-13
-7.84643e-11
3.63164e-13
-7.8845e-11
3.80648e-13
-7.90423e-11
1.9738e-13
-7.92408e-11
1.98493e-13
-7.96221e-11
3.81299e-13
-7.99905e-11
3.68317e-13
-8.03737e-11
3.83209e-13
-8.05737e-11
2.00045e-13
-8.07736e-11
1.99885e-13
-8.11589e-11
3.85321e-13
-8.15305e-11
3.71608e-13
-8.19176e-11
3.87042e-13
-8.21194e-11
2.01842e-13
-8.23213e-11
2.01871e-13
-8.27102e-11
3.88937e-13
-8.30854e-11
3.75174e-13
-8.34761e-11
3.90686e-13
-8.36798e-11
2.03767e-13
-8.38836e-11
2.03768e-13
-8.42762e-11
3.92614e-13
-8.46549e-11
3.78699e-13
-8.50493e-11
3.9436e-13
-8.52549e-11
2.05672e-13
-8.54606e-11
2.05681e-13
-8.58569e-11
3.96278e-13
-8.62391e-11
3.82237e-13
-8.66372e-11
3.9802e-13
-8.68448e-11
2.07593e-13
-8.70523e-11
2.07572e-13
-8.74523e-11
3.99972e-13
-8.7838e-11
3.8573e-13
-8.82398e-11
4.01744e-13
-8.84492e-11
2.09421e-13
-8.86588e-11
2.09599e-13
-8.90623e-11
4.03468e-13
-8.94518e-11
3.89516e-13
-8.98568e-11
4.05039e-13
-9.00687e-11
2.11881e-13
-9.02794e-11
2.10699e-13
-9.06877e-11
4.08324e-13
-9.1079e-11
3.91303e-13
-9.14903e-11
4.1127e-13
-9.17003e-11
2.10025e-13
-9.19185e-11
2.18148e-13
-9.23224e-11
4.03946e-13
-9.27308e-11
4.08376e-13
-9.31401e-11
4.09306e-13
-9.35466e-11
4.06554e-13
-9.37672e-11
2.20583e-13
-9.39796e-11
2.12369e-13
-9.43974e-11
4.17817e-13
-9.47966e-11
3.99217e-13
-9.5215e-11
4.18349e-13
-9.54319e-11
2.16881e-13
-9.565e-11
2.18102e-13
-9.60688e-11
4.18874e-13
-9.64734e-11
4.04531e-13
-9.68942e-11
4.20801e-13
-9.71138e-11
2.19621e-13
-9.73332e-11
2.19444e-13
-9.77562e-11
4.2293e-13
-9.81639e-11
4.07797e-13
-9.85886e-11
4.2465e-13
-9.881e-11
2.21406e-13
-9.90314e-11
2.21436e-13
-9.9458e-11
4.26542e-13
-9.98694e-11
4.11367e-13
-1.00298e-10
4.28294e-13
-1.00521e-10
2.23332e-13
-1.00744e-10
2.23335e-13
-1.01175e-10
4.30216e-13
-1.01589e-10
4.14898e-13
-1.02021e-10
4.31958e-13
-1.02247e-10
2.25251e-13
-1.02472e-10
2.25227e-13
-1.02906e-10
4.33911e-13
-1.03324e-10
4.18389e-13
-1.0376e-10
4.35686e-13
-1.03987e-10
2.27073e-13
-1.04214e-10
2.27264e-13
-1.04652e-10
4.37391e-13
-1.05074e-10
4.22197e-13
-1.05513e-10
4.38949e-13
-1.05742e-10
2.29578e-13
-1.05971e-10
2.28297e-13
-1.06413e-10
4.42347e-13
-1.06837e-10
4.23838e-13
-1.07282e-10
4.45393e-13
-1.0751e-10
2.2741e-13
-1.07746e-10
2.36204e-13
-1.08183e-10
4.37303e-13
-1.08625e-10
4.42029e-13
-1.09068e-10
4.42959e-13
-1.09508e-10
4.39912e-13
-1.09747e-10
2.3864e-13
-1.09976e-10
2.29753e-13
-1.10428e-10
4.51939e-13
-1.1086e-10
4.31752e-13
-1.11312e-10
4.52373e-13
-1.11547e-10
2.34479e-13
-1.11783e-10
2.35799e-13
-1.12235e-10
4.52783e-13
-1.12673e-10
4.37211e-13
-1.13127e-10
4.54726e-13
-1.13365e-10
2.37286e-13
-1.13602e-10
2.37094e-13
-1.14059e-10
4.56871e-13
-1.14499e-10
4.40456e-13
-1.14958e-10
4.5859e-13
-1.15197e-10
2.39062e-13
-1.15436e-10
2.39094e-13
-1.15896e-10
4.60478e-13
-1.1634e-10
4.4403e-13
-1.16803e-10
4.6223e-13
-1.17044e-10
2.40991e-13
-1.17285e-10
2.40989e-13
-1.17749e-10
4.64156e-13
-1.18196e-10
4.47554e-13
-1.18662e-10
4.65904e-13
-1.18905e-10
2.42895e-13
-1.19148e-10
2.42902e-13
-1.19616e-10
4.67819e-13
-1.20067e-10
4.51092e-13
-1.20536e-10
4.69563e-13
-1.20781e-10
2.44818e-13
-1.21026e-10
2.4479e-13
-1.21498e-10
4.71518e-13
-1.21952e-10
4.54579e-13
-1.22425e-10
4.73297e-13
-1.22672e-10
2.46632e-13
-1.22919e-10
2.46838e-13
-1.23394e-10
4.74983e-13
-1.23852e-10
4.5841e-13
-1.24329e-10
4.76525e-13
-1.24578e-10
2.49188e-13
-1.24826e-10
2.47796e-13
-1.25306e-10
4.80048e-13
-1.25766e-10
4.5989e-13
-1.26249e-10
4.83206e-13
-1.26496e-10
2.46674e-13
-1.26752e-10
2.56212e-13
-1.27226e-10
4.74267e-13
-1.27705e-10
4.7932e-13
-1.28186e-10
4.8025e-13
-1.28663e-10
4.76876e-13
-1.28921e-10
2.5865e-13
-1.2917e-10
2.49016e-13
-1.2966e-10
4.8975e-13
-1.30128e-10
4.67805e-13
-1.30618e-10
4.90075e-13
-1.30872e-10
2.5398e-13
-1.31127e-10
2.55408e-13
-1.31618e-10
4.90358e-13
-1.32091e-10
4.73425e-13
-1.32583e-10
4.92318e-13
-1.3284e-10
2.56862e-13
-1.33097e-10
2.56652e-13
-1.33591e-10
4.94481e-13
-1.34068e-10
4.76646e-13
-1.34564e-10
4.96198e-13
-1.34823e-10
2.58627e-13
-1.35081e-10
2.58659e-13
-1.3558e-10
4.98083e-13
-1.3606e-10
4.80222e-13
-1.3656e-10
4.99837e-13
-1.3682e-10
2.60555e-13
-1.37081e-10
2.60556e-13
-1.37583e-10
5.01757e-13
-1.38066e-10
4.83753e-13
-1.3857e-10
5.03501e-13
-1.38832e-10
2.62476e-13
-1.39095e-10
2.62445e-13
-1.396e-10
5.05456e-13
-1.40087e-10
4.87238e-13
-1.40595e-10
5.07238e-13
-1.40859e-10
2.64284e-13
-1.41123e-10
2.64503e-13
-1.41632e-10
5.08906e-13
-1.42123e-10
4.91091e-13
-1.42634e-10
5.10435e-13
-1.42901e-10
2.66886e-13
-1.43166e-10
2.65394e-13
-1.4368e-10
5.1407e-13
-1.44173e-10
4.92426e-13
-1.4469e-10
5.17329e-13
-1.44954e-10
2.64059e-13
-1.45228e-10
2.74268e-13
-1.45736e-10
5.07624e-13
-1.46249e-10
5.12973e-13
-1.46763e-10
5.13904e-13
-1.47273e-10
5.10234e-13
-1.4755e-10
2.76707e-13
-1.47816e-10
2.664e-13
-1.4834e-10
5.23872e-13
-1.4884e-10
5.0034e-13
-1.49364e-10
5.24099e-13
-1.49636e-10
2.71578e-13
-1.49909e-10
2.73104e-13
-1.50433e-10
5.24267e-13
-1.50939e-10
5.06105e-13
-1.51466e-10
5.26243e-13
-1.5174e-10
2.74528e-13
-1.52015e-10
2.74302e-13
-1.52543e-10
5.28421e-13
-1.53052e-10
5.09305e-13
-1.53582e-10
5.30138e-13
-1.53859e-10
2.76283e-13
-1.54135e-10
2.76316e-13
-1.54667e-10
5.32018e-13
-1.5518e-10
5.12885e-13
-1.55714e-10
5.33773e-13
-1.55992e-10
2.78215e-13
-1.5627e-10
2.78209e-13
-1.56806e-10
5.35698e-13
-1.57322e-10
5.16408e-13
-1.5786e-10
5.37449e-13
-1.5814e-10
2.80118e-13
-1.5842e-10
2.80123e-13
-1.58959e-10
5.3936e-13
-1.59479e-10
5.19948e-13
-1.6002e-10
5.41106e-13
-1.60302e-10
2.82043e-13
-1.60584e-10
2.82008e-13
-1.61127e-10
5.43064e-13
-1.61651e-10
5.23428e-13
-1.62196e-10
5.44849e-13
-1.6248e-10
2.83843e-13
-1.62764e-10
2.84077e-13
-1.6331e-10
5.46497e-13
-1.63837e-10
5.27304e-13
-1.64385e-10
5.48011e-13
-1.64672e-10
2.86496e-13
-1.64957e-10
2.84893e-13
-1.65509e-10
5.51771e-13
-1.66037e-10
5.28478e-13
-1.66592e-10
5.55141e-13
-1.66876e-10
2.83324e-13
-1.6717e-10
2.94277e-13
-1.67714e-10
5.44587e-13
-1.68265e-10
5.50265e-13
-1.68816e-10
5.51195e-13
-1.69363e-10
5.47199e-13
-1.6966e-10
2.96717e-13
-1.69945e-10
2.85663e-13
-1.70507e-10
5.61683e-13
-1.71043e-10
5.36393e-13
-1.71605e-10
5.61801e-13
-1.71896e-10
2.91079e-13
-1.72189e-10
2.92713e-13
-1.72751e-10
5.61842e-13
-1.73293e-10
5.42319e-13
-1.73857e-10
5.63835e-13
-1.74151e-10
2.94104e-13
-1.74445e-10
2.9386e-13
-1.75011e-10
5.66031e-13
-1.75557e-10
5.45495e-13
-1.76124e-10
5.67746e-13
-1.7642e-10
2.95848e-13
-1.76716e-10
2.95881e-13
-1.77286e-10
5.69623e-13
-1.77835e-10
5.49078e-13
-1.78406e-10
5.71381e-13
-1.78704e-10
2.97779e-13
-1.79002e-10
2.97777e-13
-1.79575e-10
5.73298e-13
-1.80128e-10
5.52609e-13
-1.80703e-10
5.75044e-13
-1.81002e-10
2.99701e-13
-1.81302e-10
2.99663e-13
-1.81879e-10
5.77002e-13
-1.82435e-10
5.56087e-13
-1.83014e-10
5.78791e-13
-1.83315e-10
3.01495e-13
-1.83617e-10
3.01742e-13
-1.84198e-10
5.80421e-13
-1.84758e-10
5.59985e-13
-1.85339e-10
5.81922e-13
-1.85644e-10
3.04194e-13
-1.85946e-10
3.0249e-13
-1.86532e-10
5.85794e-13
-1.87093e-10
5.61014e-13
-1.87682e-10
5.89264e-13
-1.87983e-10
3.00709e-13
-1.88295e-10
3.12333e-13
-1.88873e-10
5.77944e-13
-1.89457e-10
5.83918e-13
-1.90042e-10
5.84848e-13
-1.90622e-10
5.80557e-13
-1.90937e-10
3.14774e-13
-1.9124e-10
3.03046e-13
-1.91836e-10
5.95805e-13
-1.92405e-10
5.68928e-13
-1.93001e-10
5.95825e-13
-1.9331e-10
3.08678e-13
-1.9362e-10
3.10409e-13
-1.94216e-10
5.95751e-13
-1.94791e-10
5.74999e-13
-1.95388e-10
5.9776e-13
-1.957e-10
3.1177e-13
-1.96012e-10
3.1151e-13
-1.96612e-10
5.99971e-13
-1.9719e-10
5.78154e-13
-1.97792e-10
6.01686e-13
-1.98105e-10
3.13504e-13
-1.98419e-10
3.13539e-13
-1.99022e-10
6.03558e-13
-1.99604e-10
5.81741e-13
-2.00209e-10
6.05317e-13
-2.00525e-10
3.15439e-13
-2.0084e-10
3.15429e-13
-2.01447e-10
6.0724e-13
-2.02033e-10
5.85263e-13
-2.02642e-10
6.08993e-13
-2.02959e-10
3.17341e-13
-2.03276e-10
3.17344e-13
-2.03887e-10
6.10901e-13
-2.04476e-10
5.88803e-13
-2.05089e-10
6.12649e-13
-2.05408e-10
3.19269e-13
-2.05727e-10
3.19226e-13
-2.06342e-10
6.14609e-13
-2.06934e-10
5.92277e-13
-2.0755e-10
6.16402e-13
-2.07871e-10
3.21055e-13
-2.08193e-10
3.21316e-13
-2.08811e-10
6.18012e-13
-2.09407e-10
5.96198e-13
-2.10026e-10
6.19498e-13
-2.1035e-10
3.23805e-13
-2.10672e-10
3.2199e-13
-2.11296e-10
6.23495e-13
-2.11893e-10
5.97066e-13
-2.1252e-10
6.27077e-13
-2.1284e-10
3.19974e-13
-2.13172e-10
3.32341e-13
-2.13787e-10
6.14907e-13
-2.14408e-10
6.21209e-13
-2.1503e-10
6.2214e-13
-2.15648e-10
6.17522e-13
-2.15983e-10
3.34784e-13
-2.16305e-10
3.22309e-13
-2.16939e-10
6.33616e-13
-2.17544e-10
6.04981e-13
-2.18177e-10
6.33527e-13
-2.18505e-10
3.28179e-13
-2.18835e-10
3.30018e-13
-2.19469e-10
6.33326e-13
-2.2008e-10
6.11213e-13
-2.20715e-10
6.35353e-13
-2.21047e-10
3.31346e-13
-2.21378e-10
3.31068e-13
-2.22015e-10
6.3758e-13
-2.2263e-10
6.14344e-13
-2.23269e-10
6.39294e-13
-2.23602e-10
3.33069e-13
-2.23935e-10
3.33104e-13
-2.24576e-10
6.41163e-13
-2.25194e-10
6.17933e-13
-2.25837e-10
6.42925e-13
-2.26172e-10
3.35003e-13
-2.26507e-10
3.34998e-13
-2.27152e-10
6.44839e-13
-2.27773e-10
6.21464e-13
-2.2842e-10
6.46587e-13
-2.28757e-10
3.36927e-13
-2.29094e-10
3.36881e-13
-2.29742e-10
6.48547e-13
-2.30367e-10
6.24936e-13
-2.31018e-10
6.50343e-13
-2.31356e-10
3.38706e-13
-2.31695e-10
3.38981e-13
-2.32347e-10
6.51936e-13
-2.32976e-10
6.28879e-13
-2.3363e-10
6.53408e-13
-2.33971e-10
3.41502e-13
-2.34311e-10
3.39587e-13
-2.34968e-10
6.57517e-13
-2.35598e-10
6.29602e-13
-2.36259e-10
6.612e-13
-2.36596e-10
3.37359e-13
-2.36947e-10
3.50397e-13
-2.37595e-10
6.48264e-13
-2.3825e-10
6.54862e-13
-2.38906e-10
6.55793e-13
-2.39556e-10
6.5088e-13
-2.39909e-10
3.52841e-13
-2.40249e-10
3.39693e-13
-2.40917e-10
6.67737e-13
-2.41554e-10
6.37516e-13
-2.42222e-10
6.67551e-13
-2.42568e-10
3.45778e-13
-2.42915e-10
3.47714e-13
-2.43583e-10
6.67235e-13
-2.44226e-10
6.43893e-13
-2.44896e-10
6.69278e-13
-2.45245e-10
3.49012e-13
-2.45593e-10
3.48718e-13
-2.46265e-10
6.71521e-13
-2.46912e-10
6.47003e-13
-2.47585e-10
6.73234e-13
-2.47936e-10
3.50725e-13
-2.48287e-10
3.50761e-13
-2.48962e-10
6.75098e-13
-2.49612e-10
6.50597e-13
-2.50289e-10
6.7686e-13
-2.50642e-10
3.52663e-13
-2.50995e-10
3.52649e-13
-2.51673e-10
6.78781e-13
-2.52327e-10
6.54117e-13
-2.53008e-10
6.80538e-13
-2.53363e-10
3.54565e-13
-2.53717e-10
3.54565e-13
-2.544e-10
6.82442e-13
-2.55057e-10
6.57659e-13
-2.55741e-10
6.84192e-13
-2.56098e-10
3.56495e-13
-2.56454e-10
3.56444e-13
-2.5714e-10
6.86154e-13
-2.57802e-10
6.61126e-13
-2.5849e-10
6.87955e-13
-2.58848e-10
3.58266e-13
-2.59206e-10
3.58555e-13
-2.59896e-10
6.89527e-13
-2.60561e-10
6.65092e-13
-2.61252e-10
6.90985e-13
-2.61613e-10
3.61113e-13
-2.61972e-10
3.59086e-13
-2.62667e-10
6.95218e-13
-2.63333e-10
6.65654e-13
-2.64032e-10
6.99012e-13
-2.64389e-10
3.56623e-13
-2.64759e-10
3.70404e-13
-2.65444e-10
6.85226e-13
-2.66136e-10
6.92154e-13
-2.6683e-10
6.93084e-13
-2.67517e-10
6.87845e-13
-2.6789e-10
3.72851e-13
-2.68249e-10
3.58956e-13
-2.68955e-10
7.05548e-13
-2.69628e-10
6.73568e-13
-2.70334e-10
7.05254e-13
-2.70699e-10
3.65279e-13
-2.71066e-10
3.67323e-13
-2.71771e-10
7.0481e-13
-2.72451e-10
6.80107e-13
-2.73158e-10
7.06871e-13
-2.73527e-10
3.68588e-13
-2.73895e-10
3.68276e-13
-2.74604e-10
7.0913e-13
-2.75287e-10
6.83193e-13
-2.75998e-10
7.10843e-13
-2.76368e-10
3.7029e-13
-2.76739e-10
3.70326e-13
-2.77451e-10
7.12704e-13
-2.78138e-10
6.86788e-13
-2.78853e-10
7.14469e-13
-2.79225e-10
3.72227e-13
-2.79597e-10
3.72218e-13
-2.80313e-10
7.1638e-13
-2.81004e-10
6.9032e-13
-2.81722e-10
7.1813e-13
-2.82096e-10
3.74152e-13
-2.8247e-10
3.74099e-13
-2.8319e-10
7.20092e-13
-2.83884e-10
6.93785e-13
-2.84606e-10
7.21896e-13
-2.84982e-10
3.75918e-13
-2.85358e-10
3.76219e-13
-2.86081e-10
7.2345e-13
-2.86779e-10
6.97773e-13
-2.87504e-10
7.24895e-13
-2.87883e-10
3.78811e-13
-2.8826e-10
3.76683e-13
-2.88989e-10
7.2924e-13
-2.89687e-10
6.98189e-13
-2.9042e-10
7.33136e-13
-2.90794e-10
3.74009e-13
-2.91183e-10
3.8846e-13
-2.91901e-10
7.18583e-13
-2.92627e-10
7.25807e-13
-2.93354e-10
7.26738e-13
-2.94075e-10
7.21203e-13
-2.94466e-10
3.90909e-13
-2.94842e-10
3.76339e-13
-2.95582e-10
7.3967e-13
-2.96288e-10
7.06104e-13
-2.97027e-10
7.39278e-13
-2.9741e-10
3.82878e-13
-2.97795e-10
3.85019e-13
-2.98534e-10
7.38718e-13
-2.99247e-10
7.12787e-13
-2.99987e-10
7.40796e-13
-3.00374e-10
3.86254e-13
-3.0076e-10
3.85926e-13
-3.01503e-10
7.43071e-13
-3.02219e-10
7.15852e-13
-3.02963e-10
7.44783e-13
-3.03351e-10
3.87946e-13
-3.03739e-10
3.87983e-13
-3.04486e-10
7.46638e-13
-3.05205e-10
7.19452e-13
-3.05954e-10
7.48404e-13
-3.06344e-10
3.89888e-13
-3.06734e-10
3.89869e-13
-3.07484e-10
7.50323e-13
-3.08207e-10
7.22971e-13
-3.08959e-10
7.52083e-13
-3.09351e-10
3.91789e-13
-3.09742e-10
3.91786e-13
-3.10496e-10
7.53982e-13
-3.11223e-10
7.26514e-13
-3.11979e-10
7.55735e-13
-3.12372e-10
3.93721e-13
-3.12766e-10
3.93661e-13
-3.13524e-10
7.57699e-13
-3.14254e-10
7.29975e-13
-3.15013e-10
7.59508e-13
-3.15409e-10
3.95478e-13
-3.15805e-10
3.95793e-13
-3.16566e-10
7.61041e-13
-3.173e-10
7.33986e-13
-3.18062e-10
7.62472e-13
-3.1846e-10
3.98422e-13
-3.18857e-10
3.96182e-13
-3.19624e-10
7.66941e-13
-3.20358e-10
7.34242e-13
-3.21129e-10
7.70948e-13
-3.21522e-10
3.93274e-13
-3.21931e-10
4.08468e-13
-3.22686e-10
7.55546e-13
-3.23449e-10
7.63098e-13
-3.24213e-10
7.64029e-13
-3.24971e-10
7.58168e-13
-3.25382e-10
4.10919e-13
-3.25778e-10
3.95602e-13
-3.26555e-10
7.77481e-13
-3.27297e-10
7.42156e-13
-3.28074e-10
7.7698e-13
-3.28477e-10
4.02379e-13
-3.28881e-10
4.04628e-13
-3.29658e-10
7.76293e-13
-3.30407e-10
7.49001e-13
-3.31185e-10
7.78389e-13
-3.31591e-10
4.05831e-13
-3.31996e-10
4.05484e-13
-3.32777e-10
7.8068e-13
-3.33529e-10
7.52042e-13
-3.34312e-10
7.82391e-13
-3.34719e-10
4.07512e-13
-3.35127e-10
4.07548e-13
-3.35911e-10
7.84243e-13
-3.36667e-10
7.55644e-13
-3.37453e-10
7.86013e-13
-3.37862e-10
4.09451e-13
-3.38271e-10
4.09438e-13
-3.39059e-10
7.87921e-13
-3.39819e-10
7.59175e-13
-3.40608e-10
7.89674e-13
-3.4102e-10
4.11378e-13
-3.41431e-10
4.11316e-13
-3.42223e-10
7.91637e-13
-3.42985e-10
7.62634e-13
-3.43779e-10
7.9345e-13
-3.44192e-10
4.13129e-13
-3.44605e-10
4.13457e-13
-3.454e-10
7.94964e-13
-3.46167e-10
7.66666e-13
-3.46963e-10
7.96382e-13
-3.47379e-10
4.1612e-13
-3.47793e-10
4.13779e-13
-3.48594e-10
8.00963e-13
-3.49361e-10
7.66777e-13
-3.50166e-10
8.05072e-13
-3.50577e-10
4.10659e-13
-3.51003e-10
4.26524e-13
-3.51792e-10
7.88903e-13
-3.52589e-10
7.96751e-13
-3.53386e-10
7.97682e-13
-3.54178e-10
7.91527e-13
-3.54607e-10
4.28976e-13
-3.5502e-10
4.12986e-13
-3.55832e-10
8.11602e-13
-3.56606e-10
7.74692e-13
-3.57417e-10
8.11004e-13
-3.57837e-10
4.19978e-13
-3.5826e-10
4.22323e-13
-3.5907e-10
8.10202e-13
-3.59851e-10
7.81681e-13
-3.60664e-10
8.12314e-13
-3.61087e-10
4.23497e-13
-3.6151e-10
4.23134e-13
-3.62325e-10
8.1462e-13
-3.6311e-10
7.84701e-13
-3.63926e-10
8.16331e-13
-3.64351e-10
4.25168e-13
-3.64776e-10
4.25205e-13
-3.65595e-10
8.18178e-13
-3.66383e-10
7.88308e-13
-3.67203e-10
8.19949e-13
-3.6763e-10
4.27112e-13
-3.68057e-10
4.27089e-13
-3.68879e-10
8.21864e-13
-3.69671e-10
7.91826e-13
-3.70494e-10
8.23628e-13
-3.70923e-10
4.29013e-13
-3.71352e-10
4.29006e-13
-3.72178e-10
8.25523e-13
-3.72973e-10
7.9537e-13
-3.738e-10
8.27279e-13
-3.74231e-10
4.30947e-13
-3.74662e-10
4.30879e-13
-3.75492e-10
8.29244e-13
-3.7629e-10
7.98824e-13
-3.77121e-10
8.31061e-13
-3.77554e-10
4.32689e-13
-3.77987e-10
4.33031e-13
-3.7882e-10
8.32555e-13
-3.79623e-10
8.0288e-13
-3.80457e-10
8.33959e-13
-3.80892e-10
4.35731e-13
-3.81326e-10
4.33278e-13
-3.82164e-10
8.38664e-13
-3.82967e-10
8.0283e-13
-3.8381e-10
8.42884e-13
-3.8424e-10
4.29924e-13
-3.84686e-10
4.46532e-13
-3.85512e-10
8.25866e-13
-3.86346e-10
8.34042e-13
-3.87181e-10
8.34974e-13
-3.8801e-10
8.28492e-13
-3.88459e-10
4.48986e-13
-3.88891e-10
4.32248e-13
-3.8974e-10
8.49413e-13
-3.90551e-10
8.10744e-13
-3.914e-10
8.48707e-13
-3.91839e-10
4.3948e-13
-3.92281e-10
4.41932e-13
-3.93129e-10
8.47776e-13
-3.93947e-10
8.17895e-13
-3.94797e-10
8.49906e-13
-3.9524e-10
4.43073e-13
-3.95683e-10
4.42691e-13
-3.96535e-10
8.52229e-13
-3.97356e-10
8.20891e-13
-3.9821e-10
8.5394e-13
-3.98654e-10
4.44734e-13
-3.99099e-10
4.44769e-13
-3.99955e-10
8.55783e-13
-4.00779e-10
8.24499e-13
-4.01637e-10
8.57558e-13
-4.02084e-10
4.46676e-13
-4.0253e-10
4.46658e-13
-4.0339e-10
8.59461e-13
-4.04218e-10
8.2803e-13
-4.05079e-10
8.61217e-13
-4.05528e-10
4.48604e-13
-4.05976e-10
4.48534e-13
-4.06839e-10
8.63182e-13
-4.07671e-10
8.31483e-13
-4.08536e-10
8.65003e-13