/*--------------------------------*- C++ -*----------------------------------*\
| =========                 |                                                 |
| \\      /  F ield         | OpenFOAM: The Open Source CFD Toolbox           |
|  \\    /   O peration     | Version:  2206                                  |
|   \\  /    A nd           | Website:  www.openfoam.com                      |
|    \\/     M anipulation  |                                                 |
\*---------------------------------------------------------------------------*/
FoamFile
{
    version     2.0;
    format      ascii;
    arch        "LSB;label=32;scalar=64";
    class       volVectorField;
    location    "159";
    object      U;
}
// * * * * * * * * * * * * * * * * * * * * * * * * * * * * * * * * * * * * * //

dimensions      [0 1 -1 0 0 0 0];

internalField   nonuniform List<vector> 
50000
(
(-3.64039e-09 4.41726e-06 2.20167e-10)
(-4.21127e-09 7.94664e-06 8.49578e-11)
(-5.80565e-09 1.45542e-05 1.78124e-10)
(-1.13724e-08 2.16375e-05 1.77587e-10)
(-1.31369e-08 2.80969e-05 1.06654e-10)
(-1.31761e-08 2.96145e-05 7.34114e-11)
(-1.55063e-08 3.62104e-05 1.79326e-10)
(-1.98435e-08 4.3376e-05 1.60389e-10)
(-2.38727e-08 5.05314e-05 1.85734e-10)
(-2.66894e-08 5.70441e-05 9.20369e-11)
(-2.6029e-08 5.85208e-05 8.30947e-11)
(-2.88076e-08 6.51008e-05 1.77762e-10)
(-3.28974e-08 7.22689e-05 1.62931e-10)
(-3.70696e-08 7.94298e-05 1.8262e-10)
(-3.98213e-08 8.59573e-05 9.15409e-11)
(-3.91637e-08 8.74265e-05 8.32903e-11)
(-4.19994e-08 9.39988e-05 1.80048e-10)
(-4.5974e-08 0.000101167 1.61105e-10)
(-5.03531e-08 0.00010833 1.84476e-10)
(-5.27744e-08 0.000114864 8.71851e-11)
(-5.26174e-08 0.000116331 8.89731e-11)
(-5.47121e-08 0.000122899 1.73471e-10)
(-5.97805e-08 0.000130071 1.72013e-10)
(-6.26276e-08 0.000137288 1.74383e-10)
(-6.77198e-08 0.000144456 1.7752e-10)
(-6.98332e-08 0.000150995 9.46542e-11)
(-6.96167e-08 0.00015246 8.32254e-11)
(-7.20765e-08 0.000159025 1.83458e-10)
(-7.64095e-08 0.000166193 1.62553e-10)
(-8.04523e-08 0.000173357 1.84357e-10)
(-8.32728e-08 0.000179898 8.9171e-11)
(-8.25825e-08 0.000181363 8.67883e-11)
(-8.5366e-08 0.000187926 1.81086e-10)
(-8.94796e-08 0.000195094 1.6389e-10)
(-9.36675e-08 0.000202259 1.82942e-10)
(-9.63879e-08 0.000208802 8.95332e-11)
(-9.57695e-08 0.000210266 8.64408e-11)
(-9.85061e-08 0.000216827 1.8135e-10)
(-1.02652e-07 0.000223995 1.63513e-10)
(-1.06815e-07 0.00023116 1.82817e-10)
(-1.09551e-07 0.000237705 8.91707e-11)
(-1.08925e-07 0.000239169 8.66104e-11)
(-1.11668e-07 0.000245729 1.81256e-10)
(-1.15809e-07 0.000252897 1.63423e-10)
(-1.19973e-07 0.000260062 1.82583e-10)
(-1.22707e-07 0.000266607 8.89813e-11)
(-1.22085e-07 0.000268071 8.66802e-11)
(-1.24827e-07 0.000274631 1.81225e-10)
(-1.28969e-07 0.000281798 1.63322e-10)
(-1.33131e-07 0.000288964 1.82417e-10)
(-1.35866e-07 0.00029551 8.8815e-11)
(-1.35245e-07 0.000296973 8.67475e-11)
(-1.37986e-07 0.000303533 1.81191e-10)
(-1.42129e-07 0.0003107 1.6325e-10)
(-1.46288e-07 0.000317866 1.8227e-10)
(-1.49025e-07 0.000324412 8.86923e-11)
(-1.48404e-07 0.000325876 8.67843e-11)
(-1.51147e-07 0.000332434 1.81189e-10)
(-1.55286e-07 0.000339602 1.63151e-10)
(-1.5945e-07 0.000346768 1.82205e-10)
(-1.62179e-07 0.000353315 8.85072e-11)
(-1.6157e-07 0.000354778 8.69363e-11)
(-1.64297e-07 0.000361336 1.81009e-10)
(-1.6846e-07 0.000368504 1.63328e-10)
(-1.72588e-07 0.000375669 1.81769e-10)
(-1.75368e-07 0.000382217 8.8909e-11)
(-1.74685e-07 0.00038368 8.62475e-11)
(-1.77521e-07 0.000390238 1.82054e-10)
(-1.81525e-07 0.000397405 1.61725e-10)
(-1.85885e-07 0.000404571 1.83963e-10)
(-1.88324e-07 0.000411119 8.54948e-11)
(-1.88142e-07 0.000412583 9.11626e-11)
(-1.90247e-07 0.00041914 1.74929e-10)
(-1.95323e-07 0.000426311 1.72796e-10)
(-1.98171e-07 0.000433529 1.73534e-10)
(-2.03255e-07 0.000440698 1.76184e-10)
(-2.05365e-07 0.000447247 9.29165e-11)
(-2.05165e-07 0.00044871 8.42916e-11)
(-2.07616e-07 0.000455267 1.83669e-10)
(-2.11961e-07 0.000462435 1.62151e-10)
(-2.15986e-07 0.000469601 1.83318e-10)
(-2.18814e-07 0.000476149 8.78945e-11)
(-2.18127e-07 0.000477613 8.76595e-11)
(-2.2091e-07 0.000484169 1.81336e-10)
(-2.25029e-07 0.000491337 1.63646e-10)
(-2.29207e-07 0.000498503 1.82173e-10)
(-2.3193e-07 0.000505051 8.85458e-11)
(-2.31316e-07 0.000506515 8.7176e-11)
(-2.3405e-07 0.000513071 1.81629e-10)
(-2.38201e-07 0.000520239 1.63366e-10)
(-2.42357e-07 0.000527405 1.8225e-10)
(-2.45095e-07 0.000533954 8.83799e-11)
(-2.44471e-07 0.000535417 8.72527e-11)
(-2.47212e-07 0.000541973 1.81544e-10)
(-2.51359e-07 0.00054914 1.6335e-10)
(-2.55517e-07 0.000556307 1.82159e-10)
(-2.58253e-07 0.000562856 8.8339e-11)
(-2.57632e-07 0.000564319 8.72495e-11)
(-2.60371e-07 0.000570875 1.81515e-10)
(-2.64519e-07 0.000578042 1.63307e-10)
(-2.68675e-07 0.000585209 1.82092e-10)
(-2.71413e-07 0.000591758 8.82982e-11)
(-2.7079e-07 0.000593221 8.72397e-11)
(-2.73533e-07 0.000599777 1.81507e-10)
(-2.77676e-07 0.000606944 1.63235e-10)
(-2.81837e-07 0.000614111 1.82085e-10)
(-2.84568e-07 0.00062066 8.81806e-11)
(-2.83957e-07 0.000622123 8.7351e-11)
(-2.86683e-07 0.000628679 1.81323e-10)
(-2.9085e-07 0.000635846 1.6343e-10)
(-2.94976e-07 0.000643013 1.81696e-10)
(-2.97757e-07 0.000649562 8.86351e-11)
(-2.97073e-07 0.000651026 8.66293e-11)
(-2.99907e-07 0.000657581 1.82361e-10)
(-3.03916e-07 0.000664748 1.61841e-10)
(-3.08272e-07 0.000671915 1.83929e-10)
(-3.10714e-07 0.000678464 8.52577e-11)
(-3.10528e-07 0.000679928 9.15295e-11)
(-3.12634e-07 0.000686483 1.75203e-10)
(-3.17712e-07 0.000693654 1.72964e-10)
(-3.2056e-07 0.000700872 1.73419e-10)
(-3.25643e-07 0.000708042 1.75976e-10)
(-3.27752e-07 0.000714592 9.26103e-11)
(-3.27555e-07 0.000716055 8.45157e-11)
(-3.30004e-07 0.000722611 1.83746e-10)
(-3.34351e-07 0.000729778 1.62101e-10)
(-3.38374e-07 0.000736944 1.83134e-10)
(-3.41203e-07 0.000743494 8.76379e-11)
(-3.40516e-07 0.000744957 8.78686e-11)
(-3.43299e-07 0.000751513 1.81427e-10)
(-3.47419e-07 0.00075868 1.6362e-10)
(-3.51595e-07 0.000765846 1.82025e-10)
(-3.54319e-07 0.000772396 8.83242e-11)
(-3.53705e-07 0.000773859 8.73737e-11)
(-3.56438e-07 0.000780415 1.81731e-10)
(-3.60592e-07 0.000787582 1.63357e-10)
(-3.64745e-07 0.000794748 1.82134e-10)
(-3.67484e-07 0.000801298 8.8186e-11)
(-3.6686e-07 0.000802762 8.74422e-11)
(-3.69601e-07 0.000809317 1.81654e-10)
(-3.73749e-07 0.000816484 1.63359e-10)
(-3.77905e-07 0.00082365 1.82068e-10)
(-3.80643e-07 0.0008302 8.81716e-11)
(-3.8002e-07 0.000831664 8.74281e-11)
(-3.8276e-07 0.000838219 1.81635e-10)
(-3.86909e-07 0.000845386 1.63323e-10)
(-3.91064e-07 0.000852552 1.82033e-10)
(-3.93802e-07 0.000859103 8.81395e-11)
(-3.9318e-07 0.000860566 8.7429e-11)
(-3.9592e-07 0.000867121 1.81606e-10)
(-4.00069e-07 0.000874288 1.63301e-10)
(-4.04223e-07 0.000881454 1.81988e-10)
(-4.06962e-07 0.000888005 8.81244e-11)
(-4.06339e-07 0.000889468 8.741e-11)
(-4.09081e-07 0.000896023 1.81607e-10)
(-4.13226e-07 0.00090319 1.63241e-10)
(-4.17385e-07 0.000910356 1.82003e-10)
(-4.20116e-07 0.000916907 8.80265e-11)
(-4.19505e-07 0.00091837 8.75148e-11)
(-4.22231e-07 0.000924925 1.81428e-10)
(-4.264e-07 0.000932092 1.63447e-10)
(-4.30524e-07 0.000939258 1.81633e-10)
(-4.33305e-07 0.000945809 8.84982e-11)
(-4.32621e-07 0.000947272 8.67872e-11)
(-4.35455e-07 0.000953827 1.8247e-10)
(-4.39465e-07 0.000960994 1.61867e-10)
(-4.43821e-07 0.00096816 1.83883e-10)
(-4.46264e-07 0.000974711 8.51335e-11)
(-4.46076e-07 0.000976174 9.16875e-11)
(-4.48183e-07 0.000982729 1.75304e-10)
(-4.53261e-07 0.0009899 1.73017e-10)
(-4.5611e-07 0.000997117 1.73336e-10)
(-4.61191e-07 0.00100429 1.75848e-10)
(-4.633e-07 0.00101084 9.24463e-11)
(-4.63104e-07 0.0010123 8.4613e-11)
(-4.65552e-07 0.00101886 1.83755e-10)
(-4.69901e-07 0.00102602 1.62051e-10)
(-4.73921e-07 0.00103319 1.83014e-10)
(-4.76751e-07 0.00103974 8.7495e-11)
(-4.76065e-07 0.0010412 8.79618e-11)
(-4.78847e-07 0.00104776 1.81446e-10)
(-4.82968e-07 0.00105493 1.63581e-10)
(-4.87143e-07 0.00106209 1.81921e-10)
(-4.89868e-07 0.00106864 8.81954e-11)
(-4.89254e-07 0.00107011 8.7465e-11)
(-4.91987e-07 0.00107666 1.81759e-10)
(-4.96141e-07 0.00108383 1.63329e-10)
(-5.00293e-07 0.00109099 1.82046e-10)
(-5.03033e-07 0.00109754 8.80697e-11)
(-5.02409e-07 0.00109901 8.75317e-11)
(-5.0515e-07 0.00110556 1.81689e-10)
(-5.09299e-07 0.00111273 1.63339e-10)
(-5.13454e-07 0.0011199 1.81995e-10)
(-5.16191e-07 0.00112645 8.80643e-11)
(-5.1557e-07 0.00112791 8.75188e-11)
(-5.18309e-07 0.00113446 1.81672e-10)
(-5.22459e-07 0.00114163 1.63318e-10)
(-5.26613e-07 0.0011488 1.81963e-10)
(-5.29351e-07 0.00115535 8.80547e-11)
(-5.28728e-07 0.00115681 8.75e-11)
(-5.3147e-07 0.00116337 1.81675e-10)
(-5.35616e-07 0.00117053 1.63264e-10)
(-5.39775e-07 0.0011777 1.81986e-10)
(-5.42506e-07 0.00118425 8.79645e-11)
(-5.41894e-07 0.00118571 8.76027e-11)
(-5.4462e-07 0.00119227 1.815e-10)
(-5.4879e-07 0.00119944 1.63475e-10)
(-5.52914e-07 0.0012066 1.81624e-10)
(-5.55695e-07 0.00121315 8.84425e-11)
(-5.55011e-07 0.00121462 8.6874e-11)
(-5.57844e-07 0.00122117 1.82545e-10)
(-5.61856e-07 0.00122834 1.61899e-10)
(-5.6621e-07 0.0012355 1.83882e-10)
(-5.68654e-07 0.00124205 8.50822e-11)
(-5.68465e-07 0.00124352 9.1776e-11)
(-5.70572e-07 0.00125007 1.75374e-10)
(-5.75651e-07 0.00125724 1.73063e-10)
(-5.78499e-07 0.00126446 1.73314e-10)
(-5.83581e-07 0.00127163 1.75803e-10)
(-5.8569e-07 0.00127818 9.23742e-11)
(-5.85494e-07 0.00127965 8.46715e-11)
(-5.87942e-07 0.0012862 1.8378e-10)
(-5.92291e-07 0.00129337 1.62043e-10)
(-5.96311e-07 0.00130053 1.82972e-10)
(-5.99141e-07 0.00130708 8.74314e-11)
(-5.98455e-07 0.00130855 8.80193e-11)
(-6.01237e-07 0.0013151 1.81476e-10)
(-6.05358e-07 0.00132227 1.63579e-10)
(-6.09533e-07 0.00132944 1.81887e-10)
(-6.12257e-07 0.00133599 8.8138e-11)
(-6.11644e-07 0.00133745 8.75218e-11)
(-6.14377e-07 0.001344 1.81792e-10)
(-6.18531e-07 0.00135117 1.63332e-10)
(-6.22683e-07 0.00135834 1.82018e-10)
(-6.25423e-07 0.00136489 8.8017e-11)
(-6.24799e-07 0.00136635 8.75888e-11)
(-6.27539e-07 0.00137291 1.81725e-10)
(-6.31689e-07 0.00138007 1.63347e-10)
(-6.35844e-07 0.00138724 1.81972e-10)
(-6.38581e-07 0.00139379 8.80183e-11)
(-6.37959e-07 0.00139525 8.75729e-11)
(-6.40698e-07 0.00140181 1.81716e-10)
(-6.44849e-07 0.00140897 1.63324e-10)
(-6.49003e-07 0.00141614 1.81955e-10)
(-6.51741e-07 0.00142269 8.80006e-11)
(-6.51119e-07 0.00142416 8.75719e-11)
(-6.53858e-07 0.00143071 1.81695e-10)
(-6.58008e-07 0.00143788 1.63312e-10)
(-6.62162e-07 0.00144504 1.81926e-10)
(-6.64901e-07 0.00145159 8.79984e-11)
(-6.64278e-07 0.00145306 8.75514e-11)
(-6.67019e-07 0.00145961 1.81702e-10)
(-6.71166e-07 0.00146678 1.63262e-10)
(-6.75324e-07 0.00147395 1.81955e-10)
(-6.78056e-07 0.0014805 8.79127e-11)
(-6.77444e-07 0.00148196 8.76539e-11)
(-6.80169e-07 0.00148851 1.8153e-10)
(-6.84339e-07 0.00149568 1.63476e-10)
(-6.88463e-07 0.00150285 1.81599e-10)
(-6.91245e-07 0.0015094 8.83946e-11)
(-6.9056e-07 0.00151086 8.69253e-11)
(-6.93393e-07 0.00151742 1.82577e-10)
(-6.97405e-07 0.00152458 1.61905e-10)
(-7.01759e-07 0.00153175 1.83862e-10)
(-7.04203e-07 0.0015383 8.50376e-11)
(-7.04014e-07 0.00153976 9.18288e-11)
(-7.06121e-07 0.00154632 1.75406e-10)
(-7.112e-07 0.00155349 1.73077e-10)
(-7.14049e-07 0.00156071 1.73281e-10)
(-7.1913e-07 0.00156788 1.75754e-10)
(-7.21238e-07 0.00157443 9.23138e-11)
(-7.21044e-07 0.00157589 8.47046e-11)
(-7.23491e-07 0.00158245 1.8378e-10)
(-7.27841e-07 0.00158961 1.62021e-10)
(-7.3186e-07 0.00159678 1.82924e-10)
(-7.3469e-07 0.00160333 8.73772e-11)
(-7.34004e-07 0.00160479 8.8052e-11)
(-7.36786e-07 0.00161135 1.81479e-10)
(-7.40908e-07 0.00161851 1.63562e-10)
(-7.45082e-07 0.00162568 1.81844e-10)
(-7.47807e-07 0.00163223 8.80878e-11)
(-7.47193e-07 0.0016337 8.75547e-11)
(-7.49926e-07 0.00164025 1.81799e-10)
(-7.54081e-07 0.00164742 1.63318e-10)
(-7.58232e-07 0.00165458 1.81981e-10)
(-7.60972e-07 0.00166113 8.79705e-11)
(-7.60348e-07 0.0016626 8.76218e-11)
(-7.63089e-07 0.00166915 1.81735e-10)
(-7.67238e-07 0.00167632 1.63336e-10)
(-7.71393e-07 0.00168349 1.81941e-10)
(-7.7413e-07 0.00169004 8.79734e-11)
(-7.73509e-07 0.0016915 8.76087e-11)
(-7.76248e-07 0.00169805 1.81725e-10)
(-7.80398e-07 0.00170522 1.63321e-10)
(-7.84551e-07 0.00171239 1.81919e-10)
(-7.87291e-07 0.00171894 8.79712e-11)
(-7.86667e-07 0.0017204 8.759e-11)
(-7.89409e-07 0.00172696 1.81733e-10)
(-7.93556e-07 0.00173412 1.63274e-10)
(-7.97714e-07 0.00174129 1.81951e-10)
(-8.00446e-07 0.00174784 8.78883e-11)
(-7.99833e-07 0.0017493 8.76923e-11)
(-8.02559e-07 0.00175586 1.81563e-10)
(-8.06729e-07 0.00176302 1.63491e-10)
(-8.10853e-07 0.00177019 1.81598e-10)
(-8.13635e-07 0.00177674 8.83722e-11)
(-8.1295e-07 0.00177821 8.69638e-11)
(-8.15782e-07 0.00178476 1.82612e-10)
(-8.19795e-07 0.00179193 1.61921e-10)
(-8.24149e-07 0.00179909 1.83864e-10)
(-8.26593e-07 0.00180564 8.50167e-11)
(-8.26403e-07 0.00180711 9.18688e-11)
(-8.28511e-07 0.00181366 1.7544e-10)
(-8.3359e-07 0.00182083 1.731e-10)
(-8.36439e-07 0.00182805 1.73274e-10)
(-8.41519e-07 0.00183522 1.75737e-10)
(-8.43628e-07 0.00184177 9.22832e-11)
(-8.43434e-07 0.00184324 8.47319e-11)
(-8.45881e-07 0.00184979 1.83793e-10)
(-8.50231e-07 0.00185696 1.6202e-10)
(-8.54249e-07 0.00186412 1.82908e-10)
(-8.5708e-07 0.00187067 8.73497e-11)
(-8.56394e-07 0.00187214 8.80792e-11)
(-8.59176e-07 0.00187869 1.81495e-10)
(-8.63298e-07 0.00188586 1.63563e-10)
(-8.67472e-07 0.00189302 1.81831e-10)
(-8.70196e-07 0.00189958 8.80627e-11)
(-8.69583e-07 0.00190104 8.75819e-11)
(-8.72316e-07 0.00190759 1.81817e-10)
(-8.76471e-07 0.00191476 1.63321e-10)
(-8.80622e-07 0.00192193 1.81971e-10)
(-8.83362e-07 0.00192848 8.7947e-11)
(-8.82738e-07 0.00192994 8.76498e-11)
(-8.85478e-07 0.0019365 1.81755e-10)
(-8.89628e-07 0.00194366 1.63342e-10)
(-8.93783e-07 0.00195083 1.81932e-10)
(-8.96521e-07 0.00195738 8.79536e-11)
(-8.95898e-07 0.00195884 8.76343e-11)
(-8.98638e-07 0.0019654 1.8175e-10)
(-9.02788e-07 0.00197256 1.63324e-10)
(-9.06942e-07 0.00197973 1.81921e-10)
(-9.0968e-07 0.00198628 8.79408e-11)
(-9.09058e-07 0.00198775 8.76339e-11)
(-9.11797e-07 0.0019943 1.81733e-10)
(-9.15948e-07 0.00200147 1.63317e-10)
(-9.20101e-07 0.00200863 1.81899e-10)
(-9.2284e-07 0.00201518 8.79432e-11)
(-9.22217e-07 0.00201665 8.76136e-11)
(-9.24958e-07 0.0020232 1.81744e-10)
(-9.29105e-07 0.00203037 1.63271e-10)
(-9.33263e-07 0.00203753 1.81934e-10)
(-9.35995e-07 0.00204409 8.78618e-11)
(-9.35383e-07 0.00204555 8.77165e-11)
(-9.38108e-07 0.0020521 1.81576e-10)
(-9.42279e-07 0.00205927 1.6349e-10)
(-9.46402e-07 0.00206644 1.81583e-10)
(-9.49184e-07 0.00207299 8.83476e-11)
(-9.48499e-07 0.00207445 8.69882e-11)
(-9.51331e-07 0.00208101 1.82626e-10)
(-9.55345e-07 0.00208817 1.61922e-10)
(-9.59698e-07 0.00209534 1.83852e-10)
(-9.62143e-07 0.00210189 8.49933e-11)
(-9.61953e-07 0.00210335 9.18944e-11)
(-9.6406e-07 0.00210991 1.75454e-10)
(-9.69139e-07 0.00211708 1.73106e-10)
(-9.71988e-07 0.0021243 1.73255e-10)
(-9.77069e-07 0.00213147 1.7571e-10)
(-9.79177e-07 0.00213802 9.22514e-11)
(-9.78984e-07 0.00213948 8.47479e-11)
(-9.8143e-07 0.00214604 1.83791e-10)
(-9.85781e-07 0.0021532 1.62007e-10)
(-9.89799e-07 0.00216037 1.82882e-10)
(-9.92629e-07 0.00216692 8.7321e-11)
(-9.91944e-07 0.00216838 8.80951e-11)
(-9.94726e-07 0.00217494 1.81495e-10)
(-9.98847e-07 0.0021821 1.63552e-10)
(-1.00302e-06 0.00218927 1.81807e-10)
(-1.00575e-06 0.00219582 8.80356e-11)
(-1.00513e-06 0.00219729 8.75983e-11)
(-1.00787e-06 0.00220384 1.81819e-10)
(-1.01202e-06 0.00221101 1.63312e-10)
(-1.01617e-06 0.00221817 1.81949e-10)
(-1.01891e-06 0.00222472 8.79218e-11)
(-1.01829e-06 0.00222619 8.76661e-11)
(-1.02103e-06 0.00223274 1.81759e-10)
(-1.02518e-06 0.00223991 1.63334e-10)
(-1.02933e-06 0.00224707 1.81914e-10)
(-1.03207e-06 0.00225363 8.79281e-11)
(-1.03145e-06 0.00225509 8.76537e-11)
(-1.03419e-06 0.00226164 1.81751e-10)
(-1.03834e-06 0.00226881 1.63323e-10)
(-1.04249e-06 0.00227598 1.81897e-10)
(-1.04523e-06 0.00228253 8.79292e-11)
(-1.04461e-06 0.00228399 8.76354e-11)
(-1.04735e-06 0.00229055 1.81763e-10)
(-1.0515e-06 0.00229771 1.6328e-10)
(-1.05565e-06 0.00230488 1.81934e-10)
(-1.05838e-06 0.00231143 8.78493e-11)
(-1.05777e-06 0.00231289 8.77382e-11)
(-1.0605e-06 0.00231945 1.81595e-10)
(-1.06467e-06 0.00232661 1.63499e-10)
(-1.06879e-06 0.00233378 1.81585e-10)
(-1.07157e-06 0.00234033 8.83361e-11)
(-1.07089e-06 0.0023418 8.70102e-11)
(-1.07372e-06 0.00234835 1.82647e-10)
(-1.07773e-06 0.00235552 1.61932e-10)
(-1.08209e-06 0.00236268 1.83855e-10)
(-1.08453e-06 0.00236923 8.49824e-11)
(-1.08434e-06 0.0023707 9.19174e-11)
(-1.08645e-06 0.00237725 1.75474e-10)
(-1.09153e-06 0.00238442 1.7312e-10)
(-1.09438e-06 0.00239164 1.73252e-10)
(-1.09946e-06 0.00239881 1.75701e-10)
(-1.10157e-06 0.00240536 9.22349e-11)
(-1.10137e-06 0.00240683 8.4764e-11)
(-1.10382e-06 0.00241338 1.838e-10)
(-1.10817e-06 0.00242055 1.62008e-10)
(-1.11219e-06 0.00242771 1.82874e-10)
(-1.11502e-06 0.00243426 8.73061e-11)
(-1.11433e-06 0.00243573 8.81112e-11)
(-1.11712e-06 0.00244228 1.81505e-10)
(-1.12124e-06 0.00244945 1.63554e-10)
(-1.12541e-06 0.00245661 1.81801e-10)
(-1.12814e-06 0.00246317 8.8022e-11)
(-1.12752e-06 0.00246463 8.76146e-11)
(-1.13026e-06 0.00247118 1.8183e-10)
(-1.13441e-06 0.00247835 1.63315e-10)
(-1.13856e-06 0.00248552 1.81945e-10)
(-1.1413e-06 0.00249207 8.79089e-11)
(-1.14068e-06 0.00249353 8.7683e-11)
(-1.14342e-06 0.00250009 1.81771e-10)
(-1.14757e-06 0.00250725 1.63339e-10)
(-1.15172e-06 0.00251442 1.8191e-10)
(-1.15446e-06 0.00252097 8.7918e-11)
(-1.15384e-06 0.00252243 8.76682e-11)
(-1.15658e-06 0.00252899 1.81768e-10)
(-1.16073e-06 0.00253615 1.63324e-10)
(-1.16488e-06 0.00254332 1.81903e-10)
(-1.16762e-06 0.00254987 8.79076e-11)
(-1.167e-06 0.00255134 8.76683e-11)
(-1.16974e-06 0.00255789 1.81754e-10)
(-1.17389e-06 0.00256506 1.6332e-10)
(-1.17804e-06 0.00257222 1.81884e-10)
(-1.18078e-06 0.00257877 8.79122e-11)
(-1.18016e-06 0.00258024 8.76486e-11)
(-1.1829e-06 0.00258679 1.81768e-10)
(-1.18705e-06 0.00259396 1.63277e-10)
(-1.1912e-06 0.00260112 1.81922e-10)
(-1.19393e-06 0.00260768 8.78331e-11)
(-1.19332e-06 0.00260914 8.77518e-11)
(-1.19605e-06 0.00261569 1.81602e-10)
(-1.20022e-06 0.00262286 1.63497e-10)
(-1.20434e-06 0.00263003 1.81575e-10)
(-1.20712e-06 0.00263658 8.83208e-11)
(-1.20644e-06 0.00263804 8.70243e-11)
(-1.20927e-06 0.0026446 1.82654e-10)
(-1.21328e-06 0.00265176 1.61932e-10)
(-1.21764e-06 0.00265893 1.83847e-10)
(-1.22008e-06 0.00266548 8.49679e-11)
(-1.21989e-06 0.00266694 9.19321e-11)
(-1.222e-06 0.0026735 1.75481e-10)
(-1.22708e-06 0.00268067 1.73122e-10)
(-1.22993e-06 0.00268789 1.7324e-10)
(-1.23501e-06 0.00269506 1.75684e-10)
(-1.23712e-06 0.00270161 9.22152e-11)
(-1.23692e-06 0.00270307 8.4773e-11)
(-1.23937e-06 0.00270962 1.83798e-10)
(-1.24372e-06 0.00271679 1.61999e-10)
(-1.24774e-06 0.00272396 1.82857e-10)
(-1.25057e-06 0.00273051 8.72881e-11)
(-1.24988e-06 0.00273197 8.81203e-11)
(-1.25267e-06 0.00273853 1.81504e-10)
(-1.25679e-06 0.00274569 1.63547e-10)
(-1.26096e-06 0.00275286 1.81785e-10)
(-1.26369e-06 0.00275941 8.80049e-11)
(-1.26307e-06 0.00276088 8.76239e-11)
(-1.2658e-06 0.00276743 1.8183e-10)
(-1.26996e-06 0.0027746 1.63309e-10)
(-1.27411e-06 0.00278176 1.8193e-10)
(-1.27685e-06 0.00278831 8.78929e-11)
(-1.27623e-06 0.00278978 8.76924e-11)
(-1.27897e-06 0.00279633 1.81772e-10)
(-1.28312e-06 0.0028035 1.63333e-10)
(-1.28727e-06 0.00281066 1.81898e-10)
(-1.29001e-06 0.00281722 8.79011e-11)
(-1.28939e-06 0.00281868 8.76805e-11)
(-1.29213e-06 0.00282523 1.81767e-10)
(-1.29628e-06 0.0028324 1.63324e-10)
(-1.30043e-06 0.00283957 1.81884e-10)
(-1.30317e-06 0.00284612 8.79038e-11)
(-1.30255e-06 0.00284758 8.76629e-11)
(-1.30529e-06 0.00285413 1.8178e-10)
(-1.30944e-06 0.0028613 1.63283e-10)
(-1.31359e-06 0.00286847 1.81923e-10)
(-1.31632e-06 0.00287502 8.78258e-11)
(-1.31571e-06 0.00287648 8.7766e-11)
(-1.31844e-06 0.00288304 1.81615e-10)
(-1.32261e-06 0.0028902 1.63504e-10)
(-1.32673e-06 0.00289737 1.81577e-10)
(-1.32951e-06 0.00290392 8.8314e-11)
(-1.32883e-06 0.00290539 8.70387e-11)
(-1.33166e-06 0.00291194 1.82668e-10)
(-1.33567e-06 0.00291911 1.61939e-10)
(-1.34003e-06 0.00292627 1.8385e-10)
(-1.34247e-06 0.00293282 8.49615e-11)
(-1.34228e-06 0.00293429 9.19472e-11)
(-1.34439e-06 0.00294084 1.75495e-10)
(-1.34947e-06 0.00294801 1.73132e-10)
(-1.35232e-06 0.00295523 1.73239e-10)
(-1.3574e-06 0.0029624 1.7568e-10)
(-1.35951e-06 0.00296895 9.22052e-11)
(-1.35931e-06 0.00297042 8.47837e-11)
(-1.36176e-06 0.00297697 1.83804e-10)
(-1.36611e-06 0.00298414 1.62e-10)
(-1.37013e-06 0.0029913 1.82853e-10)
(-1.37296e-06 0.00299785 8.7279e-11)
(-1.37227e-06 0.00299932 8.81311e-11)
(-1.37505e-06 0.00300587 1.81512e-10)
(-1.37918e-06 0.00301304 1.63549e-10)
(-1.38335e-06 0.0030202 1.81782e-10)
(-1.38608e-06 0.00302676 8.79966e-11)
(-1.38546e-06 0.00302822 8.76349e-11)
(-1.38819e-06 0.00303477 1.81839e-10)
(-1.39235e-06 0.00304194 1.63312e-10)
(-1.3965e-06 0.00304911 1.81928e-10)
(-1.39924e-06 0.00305566 8.78849e-11)
(-1.39862e-06 0.00305712 8.7704e-11)
(-1.40136e-06 0.00306367 1.81781e-10)
(-1.40551e-06 0.00307084 1.63337e-10)
(-1.40966e-06 0.00307801 1.81896e-10)
(-1.4124e-06 0.00308456 8.78955e-11)
(-1.41178e-06 0.00308602 8.76896e-11)
(-1.41452e-06 0.00309258 1.8178e-10)
(-1.41867e-06 0.00309974 1.63324e-10)
(-1.42282e-06 0.00310691 1.81891e-10)
(-1.42556e-06 0.00311346 8.78865e-11)
(-1.42494e-06 0.00311493 8.76902e-11)
(-1.42768e-06 0.00312148 1.81768e-10)
(-1.43183e-06 0.00312865 1.63322e-10)
(-1.43598e-06 0.00313581 1.81874e-10)
(-1.43872e-06 0.00314236 8.78925e-11)
(-1.4381e-06 0.00314383 8.76709e-11)
(-1.44084e-06 0.00315038 1.81783e-10)
(-1.44498e-06 0.00315755 1.6328e-10)
(-1.44914e-06 0.00316471 1.81915e-10)
(-1.45187e-06 0.00317127 8.78147e-11)
(-1.45126e-06 0.00317273 8.77746e-11)
(-1.45399e-06 0.00317928 1.81618e-10)
(-1.45816e-06 0.00318645 1.63502e-10)
(-1.46228e-06 0.00319362 1.81569e-10)
(-1.46506e-06 0.00320017 8.83036e-11)
(-1.46438e-06 0.00320163 8.70475e-11)
(-1.46721e-06 0.00320818 1.82672e-10)
(-1.47122e-06 0.00321535 1.61938e-10)
(-1.47558e-06 0.00322252 1.83843e-10)
(-1.47802e-06 0.00322907 8.49514e-11)
(-1.47783e-06 0.00323053 9.19567e-11)
(-1.47994e-06 0.00323709 1.75499e-10)
(-1.48502e-06 0.00324426 1.73133e-10)
(-1.48787e-06 0.00325148 1.7323e-10)
(-1.49295e-06 0.00325865 1.75667e-10)
(-1.49506e-06 0.0032652 9.21915e-11)
(-1.49486e-06 0.00326666 8.47894e-11)
(-1.49731e-06 0.00327321 1.83802e-10)
(-1.50166e-06 0.00328038 1.61994e-10)
(-1.50568e-06 0.00328755 1.8284e-10)
(-1.50851e-06 0.0032941 8.72666e-11)
(-1.50782e-06 0.00329556 8.81368e-11)
(-1.5106e-06 0.00330212 1.8151e-10)
(-1.51473e-06 0.00330928 1.63543e-10)
(-1.5189e-06 0.00331645 1.81771e-10)
(-1.52162e-06 0.003323 8.79847e-11)
(-1.52101e-06 0.00332447 8.76409e-11)
(-1.52374e-06 0.00333102 1.81838e-10)
(-1.5279e-06 0.00333819 1.63307e-10)
(-1.53205e-06 0.00334535 1.81918e-10)
(-1.53479e-06 0.0033519 8.78739e-11)
(-1.53417e-06 0.00335337 8.77098e-11)
(-1.53691e-06 0.00335992 1.81781e-10)
(-1.54106e-06 0.00336709 1.63332e-10)
(-1.54521e-06 0.00337425 1.81887e-10)
(-1.54795e-06 0.00338081 8.78832e-11)
(-1.54733e-06 0.00338227 8.76984e-11)
(-1.55007e-06 0.00338882 1.81778e-10)
(-1.55422e-06 0.00339599 1.63325e-10)
(-1.55837e-06 0.00340316 1.81875e-10)
(-1.56111e-06 0.00340971 8.78871e-11)
(-1.56049e-06 0.00341117 8.76811e-11)
(-1.56323e-06 0.00341772 1.81792e-10)
(-1.56737e-06 0.00342489 1.63285e-10)
(-1.57153e-06 0.00343206 1.81916e-10)
(-1.57426e-06 0.00343861 8.781e-11)
(-1.57365e-06 0.00344007 8.77846e-11)
(-1.57638e-06 0.00344663 1.81628e-10)
(-1.58055e-06 0.00345379 1.63507e-10)
(-1.58467e-06 0.00346096 1.81571e-10)
(-1.58745e-06 0.00346751 8.82993e-11)
(-1.58677e-06 0.00346898 8.70577e-11)
(-1.5896e-06 0.00347553 1.82683e-10)
(-1.59361e-06 0.0034827 1.61944e-10)
(-1.59797e-06 0.00348986 1.83846e-10)
(-1.60041e-06 0.00349641 8.49473e-11)
(-1.60022e-06 0.00349788 9.19675e-11)
(-1.60233e-06 0.00350443 1.75509e-10)
(-1.60741e-06 0.0035116 1.7314e-10)
(-1.61026e-06 0.00351882 1.7323e-10)
(-1.61534e-06 0.00352599 1.75665e-10)
(-1.61745e-06 0.00353254 9.2185e-11)
(-1.61725e-06 0.00353401 8.47971e-11)
(-1.6197e-06 0.00354056 1.83807e-10)
(-1.62405e-06 0.00354773 1.61995e-10)
(-1.62807e-06 0.00355489 1.82838e-10)
(-1.6309e-06 0.00356144 8.72606e-11)
(-1.63021e-06 0.00356291 8.81446e-11)
(-1.63299e-06 0.00356946 1.81516e-10)
(-1.63712e-06 0.00357663 1.63545e-10)
(-1.64129e-06 0.00358379 1.81769e-10)
(-1.64401e-06 0.00359035 8.79792e-11)
(-1.6434e-06 0.00359181 8.76488e-11)
(-1.64613e-06 0.00359836 1.81844e-10)
(-1.65029e-06 0.00360553 1.63309e-10)
(-1.65444e-06 0.0036127 1.81917e-10)
(-1.65718e-06 0.00361925 8.78685e-11)
(-1.65656e-06 0.00362071 8.77183e-11)
(-1.6593e-06 0.00362726 1.81788e-10)
(-1.66345e-06 0.00363443 1.63336e-10)
(-1.6676e-06 0.0036416 1.81886e-10)
(-1.67034e-06 0.00364815 8.788e-11)
(-1.66972e-06 0.00364961 8.77043e-11)
(-1.67246e-06 0.00365617 1.81788e-10)
(-1.67661e-06 0.00366333 1.63324e-10)
(-1.68076e-06 0.0036705 1.81883e-10)
(-1.6835e-06 0.00367705 8.7872e-11)
(-1.68288e-06 0.00367852 8.77053e-11)
(-1.68561e-06 0.00368507 1.81777e-10)
(-1.68977e-06 0.00369224 1.63323e-10)
(-1.69392e-06 0.0036994 1.81867e-10)
(-1.69666e-06 0.00370595 8.78788e-11)
(-1.69603e-06 0.00370742 8.76865e-11)
(-1.69878e-06 0.00371397 1.81793e-10)
(-1.70292e-06 0.00372114 1.63282e-10)
(-1.70708e-06 0.0037283 1.8191e-10)
(-1.70981e-06 0.00373486 8.7802e-11)
(-1.7092e-06 0.00373632 8.77904e-11)
(-1.71193e-06 0.00374287 1.8163e-10)
(-1.7161e-06 0.00375004 1.63505e-10)
(-1.72022e-06 0.00375721 1.81566e-10)
(-1.723e-06 0.00376376 8.82915e-11)
(-1.72232e-06 0.00376522 8.70637e-11)
(-1.72515e-06 0.00377177 1.82685e-10)
(-1.72916e-06 0.00377894 1.61942e-10)
(-1.73352e-06 0.00378611 1.83841e-10)
(-1.73596e-06 0.00379266 8.494e-11)
(-1.73577e-06 0.00379412 9.19738e-11)
(-1.73788e-06 0.00380068 1.75511e-10)
(-1.74296e-06 0.00380785 1.7314e-10)
(-1.74581e-06 0.00381506 1.73223e-10)
(-1.75089e-06 0.00382224 1.75656e-10)
(-1.753e-06 0.00382879 9.2175e-11)
(-1.7528e-06 0.00383025 8.48009e-11)
(-1.75525e-06 0.0038368 1.83805e-10)
(-1.7596e-06 0.00384397 1.6199e-10)
(-1.76362e-06 0.00385114 1.82829e-10)
(-1.76645e-06 0.00385769 8.72514e-11)
(-1.76576e-06 0.00385915 8.81485e-11)
(-1.76854e-06 0.00386571 1.81514e-10)
(-1.77267e-06 0.00387287 1.6354e-10)
(-1.77684e-06 0.00388004 1.81761e-10)
(-1.77956e-06 0.00388659 8.79705e-11)
(-1.77895e-06 0.00388806 8.76528e-11)
(-1.78168e-06 0.00389461 1.81843e-10)
(-1.78584e-06 0.00390177 1.63305e-10)
(-1.78999e-06 0.00390894 1.81909e-10)
(-1.79273e-06 0.00391549 8.78603e-11)
(-1.79211e-06 0.00391696 8.77221e-11)
(-1.79485e-06 0.00392351 1.81788e-10)
(-1.799e-06 0.00393068 1.63332e-10)
(-1.80315e-06 0.00393784 1.8188e-10)
(-1.80589e-06 0.0039444 8.78705e-11)
(-1.80527e-06 0.00394586 8.7711e-11)
(-1.808e-06 0.00395241 1.81785e-10)
(-1.81216e-06 0.00395958 1.63326e-10)
(-1.81631e-06 0.00396675 1.81869e-10)
(-1.81905e-06 0.0039733 8.78751e-11)
(-1.81842e-06 0.00397476 8.76941e-11)
(-1.82117e-06 0.00398131 1.818e-10)
(-1.82531e-06 0.00398848 1.63286e-10)
(-1.82947e-06 0.00399565 1.81911e-10)
(-1.8322e-06 0.0040022 8.77989e-11)
(-1.83159e-06 0.00400366 8.77979e-11)
(-1.83432e-06 0.00401022 1.81638e-10)
(-1.83849e-06 0.00401738 1.6351e-10)
(-1.84261e-06 0.00402455 1.81567e-10)
(-1.84539e-06 0.0040311 8.82887e-11)
(-1.84471e-06 0.00403257 8.70714e-11)
(-1.84754e-06 0.00403912 1.82693e-10)
(-1.85155e-06 0.00404629 1.61947e-10)
(-1.85591e-06 0.00405345 1.83844e-10)
(-1.85835e-06 0.00406 8.49373e-11)
(-1.85816e-06 0.00406147 9.19819e-11)
(-1.86027e-06 0.00406802 1.75519e-10)
(-1.86535e-06 0.00407519 1.73146e-10)
(-1.8682e-06 0.00408241 1.73224e-10)
(-1.87328e-06 0.00408958 1.75654e-10)
(-1.87539e-06 0.00409613 9.21705e-11)
(-1.87519e-06 0.00409759 8.48067e-11)
(-1.87764e-06 0.00410415 1.83809e-10)
(-1.88199e-06 0.00411131 1.61992e-10)
(-1.88601e-06 0.00411848 1.82828e-10)
(-1.88884e-06 0.00412503 8.72473e-11)
(-1.88815e-06 0.0041265 8.81544e-11)
(-1.89093e-06 0.00413305 1.81519e-10)
(-1.89506e-06 0.00414022 1.63542e-10)
(-1.89923e-06 0.00414738 1.8176e-10)
(-1.90195e-06 0.00415394 8.79667e-11)
(-1.90134e-06 0.0041554 8.76588e-11)
(-1.90407e-06 0.00416195 1.81849e-10)
(-1.90823e-06 0.00416912 1.63307e-10)
(-1.91238e-06 0.00417629 1.81909e-10)
(-1.91512e-06 0.00418284 8.78566e-11)
(-1.9145e-06 0.0041843 8.77287e-11)
(-1.91724e-06 0.00419085 1.81793e-10)
(-1.92139e-06 0.00419802 1.63335e-10)
(-1.92554e-06 0.00420519 1.81879e-10)
(-1.92828e-06 0.00421174 8.78689e-11)
(-1.92766e-06 0.0042132 8.7715e-11)
(-1.9304e-06 0.00421976 1.81794e-10)
(-1.93455e-06 0.00422692 1.63324e-10)
(-1.9387e-06 0.00423409 1.81877e-10)
(-1.94144e-06 0.00424064 8.78614e-11)
(-1.94082e-06 0.00424211 8.77163e-11)
(-1.94355e-06 0.00424866 1.81784e-10)
(-1.94771e-06 0.00425582 1.63324e-10)
(-1.95186e-06 0.00426299 1.81863e-10)
(-1.9546e-06 0.00426954 8.78689e-11)
(-1.95397e-06 0.00427101 8.76977e-11)
(-1.95672e-06 0.00427756 1.81801e-10)
(-1.96086e-06 0.00428473 1.63284e-10)
(-1.96502e-06 0.00429189 1.81906e-10)
(-1.96775e-06 0.00429845 8.77926e-11)
(-1.96714e-06 0.00429991 8.7802e-11)
(-1.96987e-06 0.00430646 1.81639e-10)
(-1.97404e-06 0.00431363 1.63508e-10)
(-1.97816e-06 0.0043208 1.81563e-10)
(-1.98094e-06 0.00432735 8.82828e-11)
(-1.98026e-06 0.00432881 8.70756e-11)
(-1.98309e-06 0.00433536 1.82694e-10)
(-1.9871e-06 0.00434253 1.61946e-10)
(-1.99146e-06 0.0043497 1.83839e-10)
(-1.9939e-06 0.00435625 8.49315e-11)
(-1.99371e-06 0.00435771 9.19865e-11)
(-1.99582e-06 0.00436427 1.7552e-10)
(-2.0009e-06 0.00437144 1.73146e-10)
(-2.00375e-06 0.00437865 1.73218e-10)
(-2.00883e-06 0.00438582 1.75647e-10)
(-2.01093e-06 0.00439238 9.21627e-11)
(-2.01074e-06 0.00439384 8.48094e-11)
(-2.01319e-06 0.00440039 1.83807e-10)
(-2.01754e-06 0.00440756 1.61987e-10)
(-2.02156e-06 0.00441473 1.8282e-10)
(-2.02439e-06 0.00442128 8.72402e-11)
(-2.0237e-06 0.00442274 8.8157e-11)
(-2.02648e-06 0.0044293 1.81517e-10)
(-2.03061e-06 0.00443646 1.63538e-10)
(-2.03478e-06 0.00444363 1.81753e-10)
(-2.0375e-06 0.00445018 8.79599e-11)
(-2.03689e-06 0.00445164 8.76616e-11)
(-2.03962e-06 0.0044582 1.81847e-10)