/*--------------------------------*- C++ -*----------------------------------*\
| =========                 |                                                 |
| \\      /  F ield         | OpenFOAM: The Open Source CFD Toolbox           |
|  \\    /   O peration     | Version:  2206                                  |
|   \\  /    A nd           | Website:  www.openfoam.com                      |
|    \\/     M anipulation  |                                                 |
\*---------------------------------------------------------------------------*/
FoamFile
{
    version     2.0;
    format      ascii;
    arch        "LSB;label=32;scalar=64";
    class       volScalarField;
    location    "4";
    object      p;
}
// * * * * * * * * * * * * * * * * * * * * * * * * * * * * * * * * * * * * * //

dimensions      [0 2 -2 0 0 0 0];

internalField   nonuniform List<scalar> 
36000
(
-1.0759
-3.5874
-4.62668
-1.52623
4.81073
10.756
205.397
201.732
198.56
199.455
204.274
209.301
681.485
677.474
673.923
674.606
679.445
684.59
1431.62
1427.74
1424.48
1425.76
1431.34
1437.1
2474.45
2470.63
2467.59
2469.33
2475.48
2481.73
3822.48
3818.73
3815.87
3817.97
3824.59
3831.21
5485.5
5481.73
5478.91
5481.15
5487.96
5494.76
7466.6
7462.84
7460.03
7462.34
7469.26
7476.15
9766.53
9762.74
9759.9
9762.2
9769.13
9776.04
12383.2
12379.4
12376.6
12378.9
12385.9
12392.8
15315.1
15311.3
15308.5
15310.8
15317.7
15324.6
18559.6
18555.8
18553
18555.3
18562.2
18569.2
22115.2
22111.4
22108.6
22110.9
22117.8
22124.7
25980.1
25976.4
25973.6
25975.9
25982.8
25989.7
30153.5
30149.8
30146.9
30149.2
30156.2
30163.1
34633.6
34629.8
34627
34629.3
34636.2
34643
39419.6
39415.8
39412.9
39415.3
39422.2
39429.1
44512.1
44508.3
44505.5
44507.7
44514.7
44521.6
49910.9
49907.1
49904.3
49906.5
49913.5
49920.3
55614.8
55611
55608.2
55610.5
55617.4
55624.3
61623.7
61619.9
61617
61619.3
61626.2
61633.1
67937
67933.2
67930.4
67932.7
67939.6
67946.5
74554.9
74551.1
74548.3
74550.6
74557.5
74564.4
81477.1
81473.3
81470.5
81472.8
81479.7
81486.6
88703.6
88699.8
88697
88699.3
88706.2
88713
96234.1
96230.3
96227.5
96229.8
96236.7
96243.6
104069
104065
104062
104064
104071
104078
112207
112203
112200
112203
112210
112217
120650
120646
120643
120645
120652
120659
129396
129392
129389
129391
129398
129405
138446
138442
138439
138441
138448
138455
147799
147796
147793
147795
147802
147809
157457
157453
157450
157452
157459
157466
167418
167414
167411
167413
167420
167427
177682
177678
177675
177678
177684
177691
188249
188246
188243
188245
188252
188259
199120
199117
199114
199116
199123
199130
210295
210291
210288
210290
210297
210304
221772
221769
221766
221768
221775
221782
233553
233549
233547
233549
233556
233563
245638
245634
245631
245633
245640
245647
258025
258021
258018
258021
258028
258034
270716
270712
270709
270711
270718
270725
283710
283706
283703
283705
283712
283719
297007
297003
297000
297002
297009
297016
310607
310603
310600
310603
310610
310616
324510
324507
324504
324506
324513
324520
338717
338713
338710
338713
338720
338726
353226
353223
353220
353222
353229
353236
368039
368035
368032
368035
368042
368048
383155
383151
383148
383150
383157
383164
398573
398569
398566
398569
398576
398583
414295
414291
414288
414290
414297
414304
430319
430315
430312
430315
430321
430328
446646
446642
446640
446642
446649
446656
463276
463273
463270
463272
463279
463286
480209
480206
480203
480205
480212
480219
497445
497442
497439
497441
497448
497455
514984
514981
514978
514980
514987
514994
532826
532822
532820
532822
532829
532836
550971
550967
550964
550967
550973
550980
569418
569415
569412
569414
569421
569428
588169
588165
588162
588165
588171
588178
607222
607219
607216
607218
607225
607232
626579
626575
626572
626574
626581
626588
646238
646234
646231
646233
646240
646247
666200
666196
666193
666195
666202
666209
686464
686460
686458
686460
686467
686474
707032
707028
707025
707028
707034
707041
727902
727898
727896
727898
727905
727912
749075
749072
749069
749071
749078
749085
770552
770548
770545
770547
770554
770561
792330
792327
792324
792326
792333
792340
814412
814408
814405
814408
814415
814422
836797
836793
836790
836792
836799
836806
859484
859480
859477
859479
859486
859493
882474
882470
882467
882470
882477
882483
905767
905763
905760
905763
905769
905776
929363
929359
929356
929358
929365
929372
953261
953257
953254
953257
953264
953271
977462
977459
977456
977458
977465
977472
1.00197e+06
1.00196e+06
1.00196e+06
1.00196e+06
1.00197e+06
1.00198e+06
1.02677e+06
1.02677e+06
1.02677e+06
1.02677e+06
1.02678e+06
1.02678e+06
1.05188e+06
1.05188e+06
1.05188e+06
1.05188e+06
1.05189e+06
1.05189e+06
1.0773e+06
1.07729e+06
1.07729e+06
1.07729e+06
1.0773e+06
1.0773e+06
1.10301e+06
1.10301e+06
1.103e+06
1.10301e+06
1.10301e+06
1.10302e+06
1.12903e+06
1.12902e+06
1.12902e+06
1.12902e+06
1.12903e+06
1.12904e+06
1.15535e+06
1.15534e+06
1.15534e+06
1.15534e+06
1.15535e+06
1.15536e+06
1.18197e+06
1.18197e+06
1.18197e+06
1.18197e+06
1.18197e+06
1.18198e+06
1.2089e+06
1.20889e+06
1.20889e+06
1.20889e+06
1.2089e+06
1.20891e+06
1.23613e+06
1.23612e+06
1.23612e+06
1.23612e+06
1.23613e+06
1.23614e+06
1.26366e+06
1.26365e+06
1.26365e+06
1.26365e+06
1.26366e+06
1.26367e+06
1.29149e+06
1.29149e+06
1.29149e+06
1.29149e+06
1.2915e+06
1.2915e+06
1.31963e+06
1.31963e+06
1.31962e+06
1.31963e+06
1.31963e+06
1.31964e+06
1.34807e+06
1.34807e+06
1.34806e+06
1.34807e+06
1.34807e+06
1.34808e+06
1.37681e+06
1.37681e+06
1.37681e+06
1.37681e+06
1.37681e+06
1.37682e+06
1.40586e+06
1.40585e+06
1.40585e+06
1.40585e+06
1.40586e+06
1.40587e+06
1.43521e+06
1.4352e+06
1.4352e+06
1.4352e+06
1.43521e+06
1.43521e+06
1.46486e+06
1.46485e+06
1.46485e+06
1.46485e+06
1.46486e+06
1.46487e+06
1.49481e+06
1.49481e+06
1.4948e+06
1.4948e+06
1.49481e+06
1.49482e+06
1.52507e+06
1.52506e+06
1.52506e+06
1.52506e+06
1.52507e+06
1.52507e+06
1.55562e+06
1.55562e+06
1.55562e+06
1.55562e+06
1.55563e+06
1.55563e+06
1.58649e+06
1.58648e+06
1.58648e+06
1.58648e+06
1.58649e+06
1.5865e+06
1.61765e+06
1.61765e+06
1.61764e+06
1.61765e+06
1.61765e+06
1.61766e+06
1.64912e+06
1.64911e+06
1.64911e+06
1.64911e+06
1.64912e+06
1.64913e+06
1.68089e+06
1.68088e+06
1.68088e+06
1.68088e+06
1.68089e+06
1.6809e+06
1.71296e+06
1.71296e+06
1.71295e+06
1.71296e+06
1.71296e+06
1.71297e+06
1.74534e+06
1.74533e+06
1.74533e+06
1.74533e+06
1.74534e+06
1.74534e+06
1.77801e+06
1.77801e+06
1.77801e+06
1.77801e+06
1.77802e+06
1.77802e+06
1.81099e+06
1.81099e+06
1.81099e+06
1.81099e+06
1.811e+06
1.811e+06
1.84428e+06
1.84427e+06
1.84427e+06
1.84427e+06
1.84428e+06
1.84429e+06
1.87786e+06
1.87786e+06
1.87786e+06
1.87786e+06
1.87787e+06
1.87787e+06
1.91175e+06
1.91175e+06
1.91175e+06
1.91175e+06
1.91176e+06
1.91176e+06
1.94594e+06
1.94594e+06
1.94594e+06
1.94594e+06
1.94595e+06
1.94595e+06
1.98044e+06
1.98043e+06
1.98043e+06
1.98043e+06
1.98044e+06
1.98045e+06
2.01524e+06
2.01523e+06
2.01523e+06
2.01523e+06
2.01524e+06
2.01524e+06
2.05033e+06
2.05033e+06
2.05033e+06
2.05033e+06
2.05034e+06
2.05034e+06
2.08574e+06
2.08573e+06
2.08573e+06
2.08573e+06
2.08574e+06
2.08575e+06
2.12144e+06
2.12144e+06
2.12144e+06
2.12144e+06
2.12144e+06
2.12145e+06
2.15745e+06
2.15745e+06
2.15744e+06
2.15745e+06
2.15745e+06
2.15746e+06
2.19376e+06
2.19376e+06
2.19375e+06
2.19376e+06
2.19376e+06
2.19377e+06
2.23037e+06
2.23037e+06
2.23037e+06
2.23037e+06
2.23038e+06
2.23038e+06
2.26729e+06
2.26728e+06
2.26728e+06
2.26728e+06
2.26729e+06
2.2673e+06
2.30451e+06
2.3045e+06
2.3045e+06
2.3045e+06
2.30451e+06
2.30452e+06
2.34203e+06
2.34202e+06
2.34202e+06
2.34202e+06
2.34203e+06
2.34204e+06
2.37985e+06
2.37985e+06
2.37985e+06
2.37985e+06
2.37985e+06
2.37986e+06
2.41798e+06
2.41797e+06
2.41797e+06
2.41797e+06
2.41798e+06
2.41799e+06
2.45641e+06
2.4564e+06
2.4564e+06
2.4564e+06
2.45641e+06
2.45642e+06
2.49514e+06
2.49514e+06
2.49513e+06
2.49513e+06
2.49514e+06
2.49515e+06
2.53417e+06
2.53417e+06
2.53417e+06
2.53417e+06
2.53418e+06
2.53418e+06
2.57351e+06
2.57351e+06
2.5735e+06
2.57351e+06
2.57351e+06
2.57352e+06
2.61315e+06
2.61315e+06
2.61314e+06
2.61315e+06
2.61315e+06
2.61316e+06
2.65309e+06
2.65309e+06
2.65309e+06
2.65309e+06
2.6531e+06
2.6531e+06
2.69334e+06
2.69333e+06
2.69333e+06
2.69333e+06
2.69334e+06
2.69335e+06
2.73389e+06
2.73388e+06
2.73388e+06
2.73388e+06
2.73389e+06
2.7339e+06
2.77474e+06
2.77473e+06
2.77473e+06
2.77473e+06
2.77474e+06
2.77475e+06
2.81589e+06
2.81589e+06
2.81588e+06
2.81588e+06
2.81589e+06
2.8159e+06
2.85735e+06
2.85734e+06
2.85734e+06
2.85734e+06
2.85735e+06
2.85735e+06
2.8991e+06
2.8991e+06
2.8991e+06
2.8991e+06
2.89911e+06
2.89911e+06
2.94116e+06
2.94116e+06
2.94116e+06
2.94116e+06
2.94117e+06
2.94117e+06
2.98353e+06
2.98353e+06
2.98352e+06
2.98352e+06
2.98353e+06
2.98354e+06
3.0262e+06
3.02619e+06
3.02619e+06
3.02619e+06
3.0262e+06
3.0262e+06
3.06916e+06
3.06916e+06
3.06916e+06
3.06916e+06
3.06917e+06
3.06917e+06
3.11244e+06
3.11243e+06
3.11243e+06
3.11243e+06
3.11244e+06
3.11245e+06
3.15601e+06
3.15601e+06
3.156e+06
3.15601e+06
3.15601e+06
3.15602e+06
3.19989e+06
3.19988e+06
3.19988e+06
3.19988e+06
3.19989e+06
3.1999e+06
3.24407e+06
3.24406e+06
3.24406e+06
3.24406e+06
3.24407e+06
3.24408e+06
3.28855e+06
3.28855e+06
3.28854e+06
3.28855e+06
3.28855e+06
3.28856e+06
3.33334e+06
3.33333e+06
3.33333e+06
3.33333e+06
3.33334e+06
3.33335e+06
3.37842e+06
3.37842e+06
3.37842e+06
3.37842e+06
3.37843e+06
3.37843e+06
3.42381e+06
3.42381e+06
3.42381e+06
3.42381e+06
3.42382e+06
3.42382e+06
3.46951e+06
3.4695e+06
3.4695e+06
3.4695e+06
3.46951e+06
3.46952e+06
3.5155e+06
3.5155e+06
3.5155e+06
3.5155e+06
3.51551e+06
3.51551e+06
3.5618e+06
3.5618e+06
3.5618e+06
3.5618e+06
3.5618e+06
3.56181e+06
3.6084e+06
3.6084e+06
3.6084e+06
3.6084e+06
3.60841e+06
3.60841e+06
3.65531e+06
3.6553e+06
3.6553e+06
3.6553e+06
3.65531e+06
3.65532e+06
3.70251e+06
3.70251e+06
3.70251e+06
3.70251e+06
3.70252e+06
3.70252e+06
3.75002e+06
3.75002e+06
3.75002e+06
3.75002e+06
3.75003e+06
3.75003e+06
3.79784e+06
3.79783e+06
3.79783e+06
3.79783e+06
3.79784e+06
3.79784e+06
3.84595e+06
3.84595e+06
3.84594e+06
3.84595e+06
3.84595e+06
3.84596e+06
3.89437e+06
3.89436e+06
3.89436e+06
3.89436e+06
3.89437e+06
3.89438e+06
3.94309e+06
3.94308e+06
3.94308e+06
3.94308e+06
3.94309e+06
3.9431e+06
3.99211e+06
3.99211e+06
3.9921e+06
3.99211e+06
3.99211e+06
3.99212e+06
4.04143e+06
4.04143e+06
4.04143e+06
4.04143e+06
4.04144e+06
4.04144e+06
4.09106e+06
4.09106e+06
4.09106e+06
4.09106e+06
4.09107e+06
4.09107e+06
4.14099e+06
4.14099e+06
4.14099e+06
4.14099e+06
4.141e+06
4.141e+06
4.19123e+06
4.19122e+06
4.19122e+06
4.19122e+06
4.19123e+06
4.19124e+06
4.24176e+06
4.24176e+06
4.24176e+06
4.24176e+06
4.24176e+06
4.24177e+06
4.2926e+06
4.2926e+06
4.29259e+06
4.2926e+06
4.2926e+06
4.29261e+06
4.34374e+06
4.34374e+06
4.34374e+06
4.34374e+06
4.34374e+06
4.34375e+06
4.39519e+06
4.39518e+06
4.39518e+06
4.39518e+06
4.39519e+06
4.3952e+06
4.44693e+06
4.44693e+06
4.44693e+06
4.44693e+06
4.44693e+06
4.44694e+06
4.49898e+06
4.49898e+06
4.49897e+06
4.49898e+06
4.49898e+06
4.49899e+06
4.55133e+06
4.55133e+06
4.55133e+06
4.55133e+06
4.55134e+06
4.55134e+06
4.60399e+06
4.60398e+06
4.60398e+06
4.60398e+06
4.60399e+06
4.604e+06
4.65694e+06
4.65694e+06
4.65694e+06
4.65694e+06
4.65695e+06
4.65695e+06
4.7102e+06
4.7102e+06
4.7102e+06
4.7102e+06
4.71021e+06
4.71021e+06
4.76377e+06
4.76376e+06
4.76376e+06
4.76376e+06
4.76377e+06
4.76378e+06
4.81763e+06
4.81763e+06
4.81763e+06
4.81763e+06
4.81763e+06
4.81764e+06
4.8718e+06
4.8718e+06
4.87179e+06
4.8718e+06
4.8718e+06
4.87181e+06
4.92627e+06
4.92627e+06
4.92626e+06
4.92627e+06
4.92627e+06
4.92628e+06
4.98104e+06
4.98104e+06
4.98104e+06
4.98104e+06
4.98105e+06
4.98105e+06
5.03612e+06
5.03612e+06
5.03611e+06
5.03611e+06
5.03612e+06
5.03613e+06
5.0915e+06
5.09149e+06
5.09149e+06
5.09149e+06
5.0915e+06
5.09151e+06
5.14718e+06
5.14717e+06
5.14717e+06
5.14717e+06
5.14718e+06
5.14719e+06
5.20316e+06
5.20316e+06
5.20316e+06
5.20316e+06
5.20316e+06
5.20317e+06
5.25945e+06
5.25944e+06
5.25944e+06
5.25944e+06
5.25945e+06
5.25946e+06
5.31604e+06
5.31603e+06
5.31603e+06
5.31603e+06
5.31604e+06
5.31605e+06
5.37293e+06
5.37292e+06
5.37292e+06
5.37292e+06
5.37293e+06
5.37294e+06
5.43012e+06
5.43012e+06
5.43012e+06
5.43012e+06
5.43013e+06
5.43013e+06
5.48762e+06
5.48762e+06
5.48761e+06
5.48762e+06
5.48762e+06
5.48763e+06
5.54542e+06
5.54542e+06
5.54541e+06
5.54542e+06
5.54542e+06
5.54543e+06
5.60352e+06
5.60352e+06
5.60352e+06
5.60352e+06
5.60352e+06
5.60353e+06
5.66193e+06
5.66192e+06
5.66192e+06
5.66192e+06
5.66193e+06
5.66194e+06
5.72063e+06
5.72063e+06
5.72063e+06
5.72063e+06
5.72064e+06
5.72064e+06
5.77964e+06
5.77964e+06
5.77964e+06
5.77964e+06
5.77965e+06
5.77965e+06
5.83896e+06
5.83895e+06
5.83895e+06
5.83895e+06
5.83896e+06
5.83897e+06
5.89857e+06
5.89857e+06
5.89857e+06
5.89857e+06
5.89858e+06
5.89858e+06
5.95849e+06
5.95849e+06
5.95848e+06
5.95849e+06
5.95849e+06
5.9585e+06
6.01871e+06
6.01871e+06
6.0187e+06
6.01871e+06
6.01871e+06
6.01872e+06
6.07923e+06
6.07923e+06
6.07923e+06
6.07923e+06
6.07924e+06
6.07924e+06
6.14006e+06
6.14006e+06
6.14005e+06
6.14006e+06
6.14006e+06
6.14007e+06
6.20119e+06
6.20119e+06
6.20118e+06
6.20119e+06
6.20119e+06
6.2012e+06
6.26262e+06
6.26262e+06
6.26261e+06
6.26262e+06
6.26262e+06
6.26263e+06
6.32435e+06
6.32435e+06
6.32435e+06
6.32435e+06
6.32436e+06
6.32436e+06
6.38639e+06
6.38639e+06
6.38638e+06
6.38639e+06
6.38639e+06
6.3864e+06
6.44873e+06
6.44873e+06
6.44872e+06
6.44873e+06
6.44873e+06
6.44874e+06
6.51137e+06
6.51137e+06
6.51137e+06
6.51137e+06
6.51138e+06
6.51138e+06
6.57432e+06
6.57431e+06
6.57431e+06
6.57431e+06
6.57432e+06
6.57433e+06
6.63756e+06
6.63756e+06
6.63756e+06
6.63756e+06
6.63757e+06
6.63757e+06
6.70111e+06
6.70111e+06
6.70111e+06
6.70111e+06
6.70112e+06
6.70112e+06
6.76497e+06
6.76496e+06
6.76496e+06
6.76496e+06
6.76497e+06
6.76498e+06
6.82912e+06
6.82912e+06
6.82912e+06
6.82912e+06
6.82912e+06
6.82913e+06
6.89358e+06
6.89358e+06
6.89357e+06
6.89358e+06
6.89358e+06
6.89359e+06
6.95834e+06
6.95834e+06
6.95833e+06
6.95834e+06
6.95834e+06
6.95835e+06
7.0234e+06
7.0234e+06
7.0234e+06
7.0234e+06
7.02341e+06
7.02341e+06
7.08877e+06
7.08877e+06
7.08876e+06
7.08877e+06
7.08877e+06
7.08878e+06
7.15444e+06
7.15443e+06
7.15443e+06
7.15443e+06
7.15444e+06
7.15445e+06
7.22041e+06
7.22041e+06
7.2204e+06
7.2204e+06
7.22041e+06
7.22042e+06
7.28668e+06
7.28668e+06
7.28668e+06
7.28668e+06
7.28669e+06
7.28669e+06
7.35326e+06
7.35326e+06
7.35325e+06
7.35325e+06
7.35326e+06
7.35327e+06
7.42014e+06
7.42013e+06
7.42013e+06
7.42013e+06
7.42014e+06
7.42015e+06
7.48732e+06
7.48732e+06
7.48731e+06
7.48732e+06
7.48732e+06
7.48733e+06
7.5548e+06
7.5548e+06
7.5548e+06
7.5548e+06
7.55481e+06
7.55481e+06
7.62259e+06
7.62259e+06
7.62258e+06
7.62259e+06
7.62259e+06
7.6226e+06
7.69068e+06
7.69068e+06
7.69067e+06
7.69068e+06
7.69068e+06
7.69069e+06
7.75907e+06
7.75907e+06
7.75907e+06
7.75907e+06
7.75908e+06
7.75908e+06
7.82777e+06
7.82776e+06
7.82776e+06
7.82776e+06
7.82777e+06
7.82778e+06
7.89676e+06
7.89676e+06
7.89676e+06
7.89676e+06
7.89677e+06
7.89677e+06
7.96606e+06
7.96606e+06
7.96606e+06
7.96606e+06
7.96607e+06
7.96607e+06
8.03567e+06
8.03566e+06
8.03566e+06
8.03566e+06
8.03567e+06
8.03568e+06
8.10557e+06
8.10557e+06
8.10557e+06
8.10557e+06
8.10558e+06
8.10558e+06
8.17578e+06
8.17578e+06
8.17577e+06
8.17578e+06
8.17578e+06
8.17579e+06
8.24629e+06
8.24629e+06
8.24629e+06
8.24629e+06
8.24629e+06
8.2463e+06
8.31711e+06
8.3171e+06
8.3171e+06
8.3171e+06
8.31711e+06
8.31711e+06
8.38822e+06
8.38822e+06
8.38821e+06
8.38822e+06
8.38822e+06
8.38823e+06
8.45964e+06
8.45964e+06
8.45963e+06
8.45964e+06
8.45964e+06
8.45965e+06
8.53136e+06
8.53136e+06
8.53135e+06
8.53136e+06
8.53136e+06
8.53137e+06
8.60338e+06
8.60338e+06
8.60338e+06
8.60338e+06
8.60339e+06
8.60339e+06
8.67571e+06
8.67571e+06
8.6757e+06
8.67571e+06
8.67571e+06
8.67572e+06
8.74834e+06
8.74834e+06
8.74833e+06
8.74834e+06
8.74834e+06
8.74835e+06
8.82127e+06
8.82127e+06
8.82127e+06
8.82127e+06
8.82127e+06
8.82128e+06
8.89451e+06
8.8945e+06
8.8945e+06
8.8945e+06
8.89451e+06
8.89452e+06
8.96804e+06
8.96804e+06
8.96804e+06
8.96804e+06
8.96805e+06
8.96805e+06
9.04188e+06
9.04188e+06
9.04188e+06
9.04188e+06
9.04189e+06
9.04189e+06
9.11603e+06
9.11602e+06
9.11602e+06
9.11602e+06
9.11603e+06
9.11604e+06
9.19047e+06
9.19047e+06
9.19046e+06
9.19047e+06
9.19047e+06
9.19048e+06
9.26522e+06
9.26522e+06
9.26521e+06
9.26521e+06
9.26522e+06
9.26523e+06
9.34027e+06
9.34027e+06
9.34026e+06
9.34026e+06
9.34027e+06
9.34028e+06
9.41562e+06
9.41562e+06
9.41562e+06
9.41562e+06
9.41562e+06
9.41563e+06
9.49128e+06
9.49127e+06
9.49127e+06
9.49127e+06
9.49128e+06
9.49129e+06
9.56724e+06
9.56723e+06
9.56723e+06
9.56723e+06
9.56724e+06
9.56725e+06
9.6435e+06
9.64349e+06
9.64349e+06
9.64349e+06
9.6435e+06
9.64351e+06
9.72006e+06
9.72006e+06
9.72005e+06
9.72006e+06
9.72006e+06
9.72007e+06
9.79693e+06
9.79692e+06
9.79692e+06
9.79692e+06
9.79693e+06
9.79694e+06
9.8741e+06
9.87409e+06
9.87409e+06
9.87409e+06
9.8741e+06
9.87411e+06
9.95157e+06
9.95156e+06
9.95156e+06
9.95156e+06
9.95157e+06
9.95158e+06
1.00293e+07
1.00293e+07
1.00293e+07
1.00293e+07
1.00293e+07
1.00294e+07
1.01074e+07
1.01074e+07
1.01074e+07
1.01074e+07
1.01074e+07
1.01074e+07
1.01858e+07
1.01858e+07
1.01858e+07
1.01858e+07
1.01858e+07
1.01858e+07
1.02645e+07
1.02645e+07
1.02645e+07
1.02645e+07
1.02645e+07
1.02645e+07
1.03435e+07
1.03435e+07
1.03435e+07
1.03435e+07
1.03435e+07
1.03435e+07
1.04228e+07
1.04227e+07
1.04227e+07
1.04227e+07
1.04228e+07
1.04228e+07
1.05023e+07
1.05023e+07
1.05023e+07
1.05023e+07
1.05023e+07
1.05024e+07
1.05822e+07
1.05822e+07
1.05822e+07
1.05822e+07
1.05822e+07
1.05822e+07
1.06624e+07
1.06624e+07
1.06624e+07
1.06624e+07
1.06624e+07
1.06624e+07
1.07429e+07
1.07429e+07
1.07429e+07
1.07429e+07
1.07429e+07
1.07429e+07
1.08237e+07
1.08237e+07
1.08237e+07
1.08237e+07
1.08237e+07
1.08237e+07
1.09048e+07
1.09048e+07
1.09048e+07
1.09048e+07
1.09048e+07
1.09048e+07
1.09862e+07
1.09862e+07
1.09862e+07
1.09862e+07
1.09862e+07
1.09862e+07
1.10679e+07
1.10679e+07
1.10679e+07
1.10679e+07
1.10679e+07
1.1068e+07
1.115e+07
1.115e+07
1.11499e+07
1.115e+07
1.115e+07
1.115e+07
1.12323e+07
1.12323e+07
1.12323e+07
1.12323e+07
1.12323e+07
1.12323e+07
1.13149e+07
1.13149e+07
1.13149e+07
1.13149e+07
1.13149e+07
1.13149e+07
1.13978e+07
1.13978e+07
1.13978e+07
1.13978e+07
1.13978e+07
1.13978e+07
1.1481e+07
1.1481e+07
1.1481e+07
1.1481e+07
1.1481e+07
1.1481e+07
1.15646e+07
1.15645e+07
1.15645e+07
1.15645e+07
1.15646e+07
1.15646e+07
1.16484e+07
1.16484e+07
1.16484e+07
1.16484e+07
1.16484e+07
1.16484e+07
1.17325e+07
1.17325e+07
1.17325e+07
1.17325e+07
1.17325e+07
1.17325e+07
1.18169e+07
1.18169e+07
1.18169e+07
1.18169e+07
1.18169e+07
1.18169e+07
1.19017e+07
1.19017e+07
1.19017e+07
1.19017e+07
1.19017e+07
1.19017e+07
1.19867e+07
1.19867e+07
1.19867e+07
1.19867e+07
1.19867e+07
1.19867e+07
1.20721e+07
1.2072e+07
1.2072e+07
1.2072e+07
1.20721e+07
1.20721e+07
1.21577e+07
1.21577e+07
1.21577e+07
1.21577e+07
1.21577e+07
1.21577e+07
1.22436e+07
1.22436e+07
1.22436e+07
1.22436e+07
1.22436e+07
1.22437e+07
1.23299e+07
1.23299e+07
1.23299e+07
1.23299e+07
1.23299e+07
1.23299e+07
1.24164e+07
1.24164e+07
1.24164e+07
1.24164e+07
1.24164e+07
1.24164e+07
1.25033e+07
1.25033e+07
1.25033e+07
1.25033e+07
1.25033e+07
1.25033e+07
1.25904e+07
1.25904e+07
1.25904e+07
1.25904e+07
1.25905e+07
1.25905e+07
1.26779e+07
1.26779e+07
1.26779e+07
1.26779e+07
1.26779e+07
1.26779e+07
1.27657e+07
1.27657e+07
1.27657e+07
1.27657e+07
1.27657e+07
1.27657e+07
1.28537e+07
1.28537e+07
1.28537e+07
1.28537e+07
1.28537e+07
1.28537e+07
1.29421e+07
1.29421e+07
1.29421e+07
1.29421e+07
1.29421e+07
1.29421e+07
1.30308e+07
1.30308e+07
1.30308e+07
1.30308e+07
1.30308e+07
1.30308e+07
1.31197e+07
1.31197e+07
1.31197e+07
1.31197e+07
1.31197e+07
1.31197e+07
1.3209e+07
1.3209e+07
1.3209e+07
1.3209e+07
1.3209e+07
1.3209e+07
1.32986e+07
1.32986e+07
1.32986e+07
1.32986e+07
1.32986e+07
1.32986e+07
1.33885e+07
1.33885e+07
1.33885e+07
1.33885e+07
1.33885e+07
1.33885e+07
1.34787e+07
1.34787e+07
1.34786e+07
1.34786e+07
1.34787e+07
1.34787e+07
1.35691e+07
1.35691e+07
1.35691e+07
1.35691e+07
1.35691e+07
1.35691e+07
1.36599e+07
1.36599e+07
1.36599e+07
1.36599e+07
1.36599e+07
1.36599e+07
1.3751e+07
1.3751e+07
1.3751e+07
1.3751e+07
1.3751e+07
1.3751e+07
1.38424e+07
1.38424e+07
1.38424e+07
1.38424e+07
1.38424e+07
1.38424e+07
1.39341e+07
1.39341e+07
1.39341e+07
1.39341e+07
1.39341e+07
1.39341e+07
1.40261e+07
1.40261e+07
1.40261e+07
1.40261e+07
1.40261e+07
1.40261e+07
1.41184e+07
1.41184e+07
1.41184e+07
1.41184e+07
1.41184e+07
1.41184e+07
1.4211e+07
1.4211e+07
1.4211e+07
1.4211e+07
1.4211e+07
1.4211e+07
1.43039e+07
1.43039e+07
1.43039e+07
1.43039e+07
1.43039e+07
1.43039e+07
1.43971e+07
1.43971e+07
1.43971e+07
1.43971e+07
1.43971e+07
1.43971e+07
1.44906e+07
1.44906e+07
1.44906e+07
1.44906e+07
1.44906e+07
1.44906e+07
1.45844e+07
1.45844e+07
1.45844e+07
1.45844e+07
1.45845e+07
1.45845e+07
1.46786e+07
1.46786e+07
1.46786e+07
1.46786e+07
1.46786e+07
1.46786e+07
1.4773e+07
1.4773e+07
1.4773e+07
1.4773e+07
1.4773e+07
1.4773e+07
1.48677e+07
1.48677e+07
1.48677e+07
1.48677e+07
1.48677e+07
1.48677e+07
1.49627e+07
1.49627e+07
1.49627e+07
1.49627e+07
1.49627e+07
1.49627e+07
1.50581e+07
1.50581e+07
1.50581e+07
1.50581e+07
1.50581e+07
1.50581e+07
1.51537e+07
1.51537e+07
1.51537e+07
1.51537e+07
1.51537e+07
1.51537e+07
1.52496e+07
1.52496e+07
1.52496e+07
1.52496e+07
1.52496e+07
1.52496e+07
1.53459e+07
1.53459e+07
1.53458e+07
1.53459e+07
1.53459e+07
1.53459e+07
1.54424e+07
1.54424e+07
1.54424e+07
1.54424e+07
1.54424e+07
1.54424e+07
1.55392e+07
1.55392e+07
1.55392e+07
1.55392e+07
1.55392e+07
1.55392e+07
1.56364e+07
1.56364e+07
1.56364e+07
1.56364e+07
1.56364e+07
1.56364e+07
1.57338e+07
1.57338e+07
1.57338e+07
1.57338e+07
1.57338e+07
1.57338e+07
1.58316e+07
1.58316e+07
1.58316e+07
1.58316e+07
1.58316e+07
1.58316e+07
1.59296e+07
1.59296e+07
1.59296e+07
1.59296e+07
1.59296e+07
1.59296e+07
1.6028e+07
1.6028e+07
1.6028e+07
1.6028e+07
1.6028e+07
1.6028e+07
1.61266e+07
1.61266e+07
1.61266e+07
1.61266e+07
1.61266e+07
1.61266e+07
1.62256e+07
1.62256e+07
1.62256e+07
1.62256e+07
1.62256e+07
1.62256e+07
1.63249e+07
1.63248e+07
1.63248e+07
1.63248e+07
1.63249e+07
1.63249e+07
1.64244e+07
1.64244e+07
1.64244e+07
1.64244e+07
1.64244e+07
1.64244e+07
1.65243e+07
1.65243e+07
1.65243e+07
1.65243e+07
1.65243e+07
1.65243e+07
1.66245e+07
1.66244e+07
1.66244e+07
1.66244e+07
1.66245e+07
1.66245e+07
1.67249e+07
1.67249e+07
1.67249e+07
1.67249e+07
1.67249e+07
1.67249e+07
1.68257e+07
1.68257e+07
1.68257e+07
1.68257e+07
1.68257e+07
1.68257e+07
1.69268e+07
1.69268e+07
1.69268e+07
1.69268e+07
1.69268e+07
1.69268e+07
1.70282e+07
1.70282e+07
1.70281e+07
1.70282e+07
1.70282e+07
1.70282e+07
1.71298e+07
1.71298e+07
1.71298e+07
1.71298e+07
1.71298e+07
1.71298e+07
1.72318e+07
1.72318e+07
1.72318e+07
1.72318e+07
1.72318e+07
1.72318e+07
1.73341e+07
1.73341e+07
1.73341e+07
1.73341e+07
1.73341e+07
1.73341e+07
1.74367e+07
1.74367e+07
1.74367e+07
1.74367e+07
1.74367e+07
1.74367e+07
1.75396e+07
1.75396e+07
1.75396e+07
1.75396e+07
1.75396e+07
1.75396e+07
1.76428e+07
1.76428e+07
1.76428e+07
1.76428e+07
1.76428e+07
1.76428e+07
1.77463e+07
1.77463e+07
1.77463e+07
1.77463e+07
1.77463e+07
1.77463e+07
1.78501e+07
1.78501e+07
1.78501e+07
1.78501e+07
1.78501e+07
1.78501e+07
1.79542e+07
1.79542e+07
1.79542e+07
1.79542e+07
1.79542e+07
1.79542e+07
1.80586e+07
1.80586e+07
1.80586e+07
1.80586e+07
1.80586e+07
1.80586e+07
1.81633e+07
1.81633e+07
1.81633e+07
1.81633e+07
1.81633e+07
1.81633e+07
1.82683e+07
1.82683e+07
1.82683e+07
1.82683e+07
1.82683e+07
1.82683e+07
1.83736e+07
1.83736e+07
1.83736e+07
1.83736e+07
1.83736e+07
1.83736e+07
1.84793e+07
1.84792e+07
1.84792e+07
1.84792e+07
1.84793e+07
1.84793e+07
1.85852e+07
1.85852e+07
1.85852e+07
1.85852e+07
1.85852e+07
1.85852e+07
1.86914e+07
1.86914e+07
1.86914e+07
1.86914e+07
1.86914e+07
1.86914e+07
1.87979e+07
1.87979e+07
1.87979e+07
1.87979e+07
1.87979e+07
1.87979e+07
1.89047e+07
1.89047e+07
1.89047e+07
1.89047e+07
1.89047e+07
1.89048e+07
1.90119e+07
1.90119e+07
1.90119e+07
1.90119e+07
1.90119e+07
1.90119e+07
1.91193e+07
1.91193e+07
1.91193e+07
1.91193e+07
1.91193e+07
1.91193e+07
1.9227e+07
1.9227e+07
1.9227e+07
1.9227e+07
1.9227e+07
1.92271e+07
1.93351e+07
1.93351e+07
1.93351e+07
1.93351e+07
1.93351e+07
1.93351e+07
1.94434e+07
1.94434e+07
1.94434e+07
1.94434e+07
1.94434e+07
1.94434e+07
1.95521e+07
1.95521e+07
1.95521e+07
1.95521e+07
1.95521e+07
1.95521e+07
1.9661e+07
1.9661e+07
1.9661e+07
1.9661e+07
1.9661e+07
1.9661e+07
1.97703e+07
1.97703e+07
1.97703e+07
1.97703e+07
1.97703e+07
1.97703e+07
1.98798e+07
1.98798e+07
1.98798e+07
1.98798e+07
1.98798e+07
1.98798e+07
1.99897e+07
1.99897e+07
1.99897e+07
1.99897e+07
1.99897e+07
1.99897e+07
2.00998e+07
2.00998e+07
2.00998e+07
2.00998e+07
2.00998e+07
2.00998e+07
2.02103e+07
2.02103e+07
2.02103e+07
2.02103e+07
2.02103e+07
2.02103e+07
2.0321e+07
2.0321e+07
2.0321e+07
2.0321e+07
2.0321e+07
2.03211e+07
2.04321e+07
2.04321e+07
2.04321e+07
2.04321e+07
2.04321e+07
2.04321e+07
2.05435e+07
2.05435e+07
2.05435e+07
2.05435e+07
2.05435e+07
2.05435e+07
2.06551e+07
2.06551e+07
2.06551e+07
2.06551e+07
2.06551e+07
2.06552e+07
2.07671e+07
2.07671e+07
2.07671e+07
2.07671e+07
2.07671e+07
2.07671e+07
2.08794e+07
2.08794e+07
2.08794e+07
2.08794e+07
2.08794e+07
2.08794e+07
2.0992e+07
2.0992e+07
2.0992e+07
2.0992e+07
2.0992e+07
2.0992e+07
2.11048e+07
2.11048e+07
2.11048e+07
2.11048e+07
2.11048e+07
2.11049e+07
2.1218e+07
2.1218e+07
2.1218e+07
2.1218e+07
2.1218e+07
2.1218e+07
2.13315e+07
2.13315e+07
2.13315e+07
2.13315e+07
2.13315e+07
2.13315e+07
2.14453e+07
2.14453e+07
2.14453e+07
2.14453e+07
2.14453e+07
2.14453e+07
2.15594e+07
2.15594e+07
2.15594e+07
2.15594e+07
2.15594e+07
2.15594e+07
2.16738e+07
2.16738e+07
2.16738e+07
2.16738e+07
2.16738e+07
2.16738e+07
2.17885e+07
2.17885e+07
2.17885e+07
2.17885e+07
2.17885e+07
2.17885e+07
2.19035e+07
2.19035e+07
2.19035e+07
2.19035e+07
2.19035e+07
2.19035e+07
2.20188e+07
2.20188e+07
2.20188e+07
2.20188e+07
2.20188e+07
2.20188e+07
2.21344e+07
2.21344e+07
2.21344e+07
2.21344e+07
2.21344e+07
2.21344e+07
2.22503e+07
2.22503e+07
2.22503e+07
2.22503e+07
2.22503e+07
2.22503e+07
2.23665e+07
2.23665e+07
2.23665e+07
2.23665e+07
2.23665e+07
2.23665e+07
2.2483e+07
2.2483e+07
2.2483e+07
2.2483e+07
2.2483e+07
2.2483e+07
2.25998e+07
2.25998e+07
2.25998e+07
2.25998e+07
2.25998e+07
2.25998e+07
2.27169e+07
2.27169e+07
2.27169e+07
2.27169e+07
2.27169e+07
2.27169e+07
2.28344e+07
2.28344e+07
2.28343e+07
2.28344e+07
2.28344e+07
2.28344e+07
2.29521e+07
2.29521e+07
2.29521e+07
2.29521e+07
2.29521e+07
2.29521e+07
2.30701e+07
2.30701e+07
2.30701e+07
2.30701e+07
2.30701e+07
2.30701e+07
2.31884e+07
2.31884e+07
2.31884e+07
2.31884e+07
2.31884e+07
2.31884e+07
2.33071e+07
2.33071e+07
2.33071e+07
2.33071e+07
2.33071e+07
2.33071e+07
2.3426e+07
2.3426e+07
2.3426e+07
2.3426e+07
2.3426e+07
2.3426e+07
2.35452e+07
2.35452e+07
2.35452e+07
2.35452e+07
2.35452e+07
2.35452e+07
2.36648e+07
2.36648e+07
2.36648e+07
2.36648e+07
2.36648e+07
2.36648e+07
2.37846e+07
2.37846e+07
2.37846e+07
2.37846e+07
2.37846e+07
2.37846e+07
2.39047e+07
2.39047e+07
2.39047e+07
2.39047e+07
2.39047e+07
2.39048e+07
2.40252e+07
2.40252e+07
2.40252e+07
2.40252e+07
2.40252e+07
2.40252e+07
2.41459e+07
2.41459e+07
2.41459e+07
2.41459e+07
2.41459e+07
2.41459e+07
2.4267e+07
2.4267e+07
2.4267e+07
2.4267e+07
2.4267e+07
2.4267e+07
2.43883e+07
2.43883e+07
2.43883e+07
2.43883e+07
2.43883e+07
2.43883e+07
2.451e+07
2.451e+07
2.451e+07
2.451e+07
2.451e+07
2.451e+07
2.4632e+07
2.46319e+07
2.46319e+07
2.46319e+07
2.4632e+07
2.4632e+07
2.47542e+07
2.47542e+07
2.47542e+07
2.47542e+07
2.47542e+07
2.47542e+07
2.48768e+07
2.48768e+07
2.48768e+07
2.48768e+07
2.48768e+07
2.48768e+07
2.49996e+07
2.49996e+07
2.49996e+07
2.49996e+07
2.49996e+07
2.49996e+07
2.51228e+07
2.51228e+07
2.51228e+07
2.51228e+07
2.51228e+07
2.51228e+07
2.52463e+07
2.52463e+07
2.52463e+07
2.52463e+07
2.52463e+07
2.52463e+07
2.53701e+07
2.537e+07
2.537e+07
2.537e+07
2.53701e+07
2.53701e+07
2.54941e+07
2.54941e+07
2.54941e+07
2.54941e+07
2.54941e+07
2.54941e+07
2.56185e+07
2.56185e+07
2.56185e+07
2.56185e+07
2.56185e+07
2.56185e+07
2.57432e+07
2.57432e+07
2.57432e+07
2.57432e+07
2.57432e+07
2.57432e+07
2.58682e+07
2.58682e+07
2.58682e+07
2.58682e+07
2.58682e+07
2.58682e+07
2.59935e+07
2.59935e+07
2.59935e+07
2.59935e+07
2.59935e+07
2.59935e+07
2.6119e+07
2.6119e+07
2.6119e+07
2.6119e+07
2.61191e+07
2.61191e+07
2.62449e+07
2.62449e+07
2.62449e+07
2.62449e+07
2.62449e+07
2.62449e+07
2.63711e+07
2.63711e+07
2.63711e+07
2.63711e+07
2.63711e+07
2.63711e+07
2.64976e+07
2.64976e+07
2.64976e+07
2.64976e+07
2.64976e+07
2.64976e+07
2.66244e+07
2.66244e+07
2.66244e+07
2.66244e+07
2.66244e+07
2.66244e+07
2.67515e+07
2.67515e+07
2.67515e+07
2.67515e+07
2.67515e+07
2.67515e+07
2.68789e+07
2.68789e+07
2.68789e+07
2.68789e+07
2.68789e+07
2.68789e+07
2.70066e+07
2.70066e+07
2.70066e+07
2.70066e+07
2.70066e+07
2.70067e+07
2.71347e+07
2.71347e+07
2.71346e+07
2.71347e+07
2.71347e+07
2.71347e+07
2.7263e+07
2.7263e+07
2.7263e+07
2.7263e+07
2.7263e+07
2.7263e+07
2.73916e+07
2.73916e+07
2.73916e+07
2.73916e+07
2.73916e+07
2.73916e+07
2.75205e+07
2.75205e+07
2.75205e+07
2.75205e+07
2.75205e+07
2.75205e+07
2.76497e+07
2.76497e+07
2.76497e+07
2.76497e+07
2.76497e+07
2.76497e+07
2.77792e+07
2.77792e+07
2.77792e+07
2.77792e+07
2.77792e+07
2.77793e+07
2.79091e+07
2.79091e+07
2.79091e+07
2.79091e+07
2.79091e+07
2.79091e+07
2.80392e+07
2.80392e+07
2.80392e+07
2.80392e+07
2.80392e+07
2.80392e+07
2.81696e+07
2.81696e+07
2.81696e+07
2.81696e+07
2.81696e+07
2.81696e+07
2.83004e+07
2.83004e+07
2.83004e+07
2.83004e+07
2.83004e+07
2.83004e+07
2.84314e+07
2.84314e+07
2.84314e+07
2.84314e+07
2.84314e+07
2.84314e+07
2.85627e+07
2.85627e+07
2.85627e+07
2.85627e+07
2.85627e+07
2.85627e+07
2.86944e+07
2.86944e+07
2.86944e+07
2.86944e+07
2.86944e+07
2.86944e+07
2.88263e+07
2.88263e+07
2.88263e+07
2.88263e+07
2.88263e+07
2.88263e+07
2.89586e+07
2.89586e+07
2.89586e+07
2.89586e+07
2.89586e+07
2.89586e+07
2.90911e+07
2.90911e+07
2.90911e+07
2.90911e+07
2.90911e+07
2.90911e+07
2.9224e+07
2.9224e+07