/*--------------------------------*- C++ -*----------------------------------*\
| =========                 |                                                 |
| \\      /  F ield         | OpenFOAM: The Open Source CFD Toolbox           |
|  \\    /   O peration     | Version:  2206                                  |
|   \\  /    A nd           | Website:  www.openfoam.com                      |
|    \\/     M anipulation  |                                                 |
\*---------------------------------------------------------------------------*/
FoamFile
{
    version     2.0;
    format      ascii;
    arch        "LSB;label=32;scalar=64";
    class       surfaceScalarField;
    location    "4";
    object      phi;
}
// * * * * * * * * * * * * * * * * * * * * * * * * * * * * * * * * * * * * * //

dimensions      [0 3 -1 0 0 0 0];

oriented        oriented;

internalField   nonuniform List<scalar> 
65994
(
5.07975e-16
-3.73933e-16
5.38613e-16
-2.84689e-17
3.52579e-17
5.0512e-16
-4.75631e-16
5.12576e-16
-4.66447e-16
-7.78208e-18
-4.66412e-16
1.2335e-15
-1.60545e-15
1.36521e-15
-1.57948e-16
-2.70298e-16
2.14364e-15
-1.87968e-15
2.12499e-15
-1.67319e-15
-2.11642e-16
-2.13948e-15
2.17889e-15
-3.77144e-15
2.4284e-15
-3.94029e-16
-4.23681e-16
5.00656e-15
-3.24579e-15
4.95667e-15
-2.90674e-15
-5.42885e-16
-5.04617e-15
3.22046e-15
-6.99104e-15
3.60639e-15
-7.78143e-16
-5.84211e-16
9.19965e-15
-4.74363e-15
9.11912e-15
-4.26352e-15
-1.02007e-15
-9.3094e-15
4.32165e-15
-1.12857e-14
4.84149e-15
-1.27096e-15
-7.65975e-16
1.48306e-14
-6.33296e-15
1.47068e-14
-5.69412e-15
-1.64232e-15
-1.50036e-14
5.42495e-15
-1.67163e-14
6.08139e-15
-1.93205e-15
-9.71311e-16
2.18787e-14
-7.97551e-15
2.17073e-14
-7.1737e-15
-2.44659e-15
-2.21772e-14
6.52241e-15
-2.32295e-14
7.30421e-15
-2.70568e-15
-1.17704e-15
3.0368e-14
-9.59566e-15
3.01326e-14
-8.62591e-15
-3.4112e-15
-3.08032e-14
7.58228e-15
-3.08278e-14
8.49129e-15
-3.62893e-15
-1.38532e-15
4.02308e-14
-1.11862e-14
3.99222e-14
-1.0054e-14
-4.55201e-15
-4.08568e-14
8.64624e-15
-3.94411e-14
9.67779e-15
-4.62841e-15
-1.56207e-15
5.15014e-14
-1.27147e-14
5.11019e-14
-1.14257e-14
-5.81931e-15
-5.22825e-14
9.65865e-15
-4.9103e-14
1.0813e-14
-5.78471e-15
-1.76431e-15
6.40763e-14
-1.42433e-14
6.35795e-14
-1.27992e-14
-7.26399e-15
-6.50815e-14
1.06749e-14
-5.97654e-14
1.19469e-14
-7.04552e-15
-1.9491e-15
7.79832e-14
-1.57352e-14
7.73747e-14
-1.41384e-14
-8.85366e-15
-7.92201e-14
1.16759e-14
-7.14605e-14
1.30712e-14
-8.45843e-15
-2.14208e-15
9.31793e-14
-1.72358e-14
9.24538e-14
-1.54884e-14
-1.06125e-14
-9.47083e-14
1.26984e-14
-8.41389e-14
1.42116e-14
-9.953e-15
-2.31507e-15
1.09724e-13
-1.87118e-14
1.08866e-13
-1.68134e-14
-1.24991e-14
-1.11522e-13
1.36944e-14
-9.78508e-14
1.53299e-14
-1.16056e-14
-2.50959e-15
1.27547e-13
-2.021e-14
1.26552e-13
-1.81615e-14
-1.4559e-14
-1.29683e-13
1.46945e-14
-1.12548e-13
1.64493e-14
-1.33637e-14
-2.68185e-15
1.46675e-13
-2.16649e-14
1.45532e-13
-1.94699e-14
-1.67564e-14
-1.49153e-13
1.56858e-14
-1.28247e-13
1.75446e-14
-1.52363e-14
-2.90035e-15
1.67115e-13
-2.31782e-14
1.65806e-13
-2.08186e-14
-1.9119e-14
-1.69972e-13
1.67596e-14
-1.44986e-13
1.87717e-14
-1.72268e-14
-3.02802e-15
1.88928e-13
-2.46643e-14
1.87454e-13
-2.21722e-14
-2.16023e-14
-1.92144e-13
1.77547e-14
-1.62746e-13
1.98722e-14
-1.93487e-14
-3.25417e-15
2.1205e-13
-2.61979e-14
2.10394e-13
-2.35393e-14
-2.42635e-14
-2.15683e-13
1.87559e-14
-1.8149e-13
2.09924e-14
-2.15749e-14
-3.42589e-15
2.36478e-13
-2.76529e-14
2.34629e-13
-2.4848e-14
-2.70616e-14
-2.40531e-13
1.97574e-14
-2.01261e-13
2.21163e-14
-2.39458e-14
-3.61639e-15
2.622e-13
-2.9148e-14
2.60152e-13
-2.61927e-14
-3.00242e-14
-2.66724e-13
2.07796e-14
-2.22026e-13
2.32577e-14
-2.64101e-14
-3.79363e-15
2.89265e-13
-3.06332e-14
2.87003e-13
-2.75262e-14
-3.31218e-14
-2.9425e-13
2.17881e-14
-2.43822e-13
2.43893e-14
-2.90191e-14
-3.98503e-15
3.17631e-13
-3.21379e-14
3.1515e-13
-2.88796e-14
-3.63852e-14
-3.2313e-13
2.2804e-14
-2.66627e-13
2.55243e-14
-3.17409e-14
-4.17084e-15
3.47326e-13
-3.36336e-14
3.44611e-13
-3.02227e-14
-3.97974e-14
-3.53353e-13
2.38136e-14
-2.90453e-13
2.66563e-14
-3.45958e-14
-4.359e-15
3.78329e-13
-3.51316e-14
3.75373e-13
-3.15694e-14
-4.33678e-14
-3.84922e-13
2.48363e-14
-3.15278e-13
2.77989e-14
-3.75478e-14
-4.53627e-15
4.10675e-13
-3.66185e-14
4.07465e-13
-3.29048e-14
-4.70741e-14
-4.17827e-13
2.5847e-14
-3.41128e-13
2.89322e-14
-4.06358e-14
-4.72519e-15
4.4433e-13
-3.81198e-14
4.40857e-13
-3.42546e-14
-5.09408e-14
-4.52081e-13
2.68634e-14
-3.6799e-13
3.00682e-14
-4.38391e-14
-4.91153e-15
4.79311e-13
-3.96176e-14
4.75565e-13
-3.55998e-14
-5.49577e-14
-4.87681e-13
2.78764e-14
-3.95874e-13
3.12043e-14
-4.71746e-14
-5.09799e-15
5.15606e-13
-4.11169e-14
5.11577e-13
-3.69482e-14
-5.91317e-14
-5.24629e-13
2.88938e-14
-4.24764e-13
3.23404e-14
-5.06178e-14
-5.28297e-15
5.53233e-13
-4.26116e-14
5.48909e-13
-3.82898e-14
-6.34513e-14
-5.62919e-13
2.99064e-14
-4.54677e-13
3.3476e-14
-5.41942e-14
-5.46903e-15
5.92171e-13
-4.411e-14
5.87544e-13
-3.96377e-14
-6.79283e-14
-6.02557e-13
3.09194e-14
-4.856e-13
3.46088e-14
-5.78875e-14
-5.65478e-15
6.32431e-13
-4.56035e-14
6.27489e-13
-4.09791e-14
-7.25557e-14
-6.43536e-13
3.19283e-14
-5.17537e-13
3.57387e-14
-6.17061e-14
-5.84178e-15
6.74004e-13
-4.70968e-14
6.68737e-13
-4.23208e-14
-7.73373e-14
-6.85857e-13
3.29484e-14
-5.50477e-13
3.68798e-14
-6.56296e-14
-6.01938e-15
7.16911e-13
-4.85834e-14
7.11308e-13
-4.36568e-14
-8.22583e-14
-7.29514e-13
3.39583e-14
-5.84436e-13
3.80113e-14
-6.96833e-14
-6.20739e-15
7.61129e-13
-5.00806e-14
7.55181e-13
-4.50024e-14
-8.73367e-14
-7.74516e-13
3.49713e-14
-6.19405e-13
3.9144e-14
-7.38535e-14
-6.39304e-15
8.06668e-13
-5.15738e-14
8.00364e-13
-4.63437e-14
-9.25653e-14
-8.2086e-13
3.59842e-14
-6.55393e-13
4.02795e-14
-7.81526e-14
-6.57809e-15
8.53522e-13
-5.30699e-14
8.46852e-13
-4.76891e-14
-9.79486e-14
-8.68549e-13
3.7e-14
-6.9239e-13
4.14145e-14
-8.25637e-14
-6.76398e-15
9.01704e-13
-5.45654e-14
8.94657e-13
-4.90317e-14
-1.0348e-13
-9.17581e-13
3.80141e-14
-7.30407e-13
4.25513e-14
-8.71039e-14
-6.94946e-15
9.51202e-13
-5.60636e-14
9.43768e-13
-5.03791e-14
-1.09167e-13
-9.6796e-13
3.90298e-14
-7.69437e-13
4.36871e-14
-9.17623e-14
-7.13608e-15
1.00202e-12
-5.75619e-14
9.94193e-13
-5.17248e-14
-1.15005e-13
-1.01968e-12
4.00425e-14
-8.09485e-13
4.4822e-14
-9.65465e-14
-7.32107e-15
1.05416e-12
-5.90568e-14
1.04592e-12
-5.30688e-14
-1.20996e-13
-1.07275e-12
4.10588e-14
-8.50538e-13
4.59577e-14
-1.0144e-13
-7.50469e-15
1.10763e-12
-6.05488e-14
1.09897e-12
-5.44084e-14
-1.27132e-13
-1.12716e-12
4.20715e-14
-8.92612e-13
4.70929e-14
-1.06463e-13
-7.69082e-15
1.16241e-12
-6.20466e-14
1.15333e-12
-5.57553e-14
-1.33425e-13
-1.18292e-12
4.30872e-14
-9.35698e-13
4.82286e-14
-1.11604e-13
-7.87723e-15
1.21852e-12
-6.35444e-14
1.20899e-12
-5.71006e-14
-1.39869e-13
-1.24002e-12
4.40999e-14
-9.79804e-13
4.93636e-14
-1.16873e-13
-8.06342e-15
1.27594e-12
-6.50418e-14
1.26597e-12
-5.84469e-14
-1.46468e-13
-1.29846e-12
4.51164e-14
-1.02492e-12
5.04995e-14
-1.22253e-13
-8.24731e-15
1.33469e-12
-6.65346e-14
1.32426e-12
-5.97873e-14
-1.53213e-13
-1.35825e-12
4.61262e-14
-1.07105e-12
5.16315e-14
-1.27765e-13
-8.43401e-15
1.39475e-12
-6.80305e-14
1.38385e-12
-6.11326e-14
-1.60116e-13
-1.41938e-12
4.71347e-14
-1.11819e-12
5.27601e-14
-1.33393e-13
-8.61611e-15
1.45612e-12
-6.9513e-14
1.44474e-12
-6.24648e-14
-1.67166e-13
-1.48185e-12
4.81391e-14
-1.16633e-12
5.38808e-14
-1.39142e-13
-8.8114e-15
1.51881e-12
-7.10112e-14
1.50694e-12
-6.3808e-14
-1.74373e-13
-1.54566e-12
4.91718e-14
-1.2155e-12
5.50426e-14
-1.45004e-13
-8.97734e-15
1.58284e-12
-7.24991e-14
1.57047e-12
-6.51498e-14
-1.81717e-13
-1.61081e-12
5.01784e-14
-1.26568e-12
5.61663e-14
-1.50993e-13
-9.17539e-15
1.64818e-12
-7.40059e-14
1.6353e-12
-6.65009e-14
-1.89223e-13
-1.67731e-12
5.11873e-14
-1.31686e-12
5.7295e-14
-1.57098e-13
-9.35735e-15
1.71483e-12
-7.54884e-14
1.70143e-12
-6.78332e-14
-1.96876e-13
-1.74514e-12
5.21977e-14
-1.36906e-12
5.84276e-14
-1.63333e-13
-9.54317e-15
1.7828e-12
-7.69829e-14
1.76887e-12
-6.9177e-14
-2.04685e-13
-1.81432e-12
5.32137e-14
-1.42227e-12
5.95632e-14
-1.69679e-13
-9.72764e-15
1.85209e-12
-7.84765e-14
1.83762e-12
-7.05183e-14
-2.12641e-13
-1.88484e-12
5.42269e-14
-1.4765e-12
6.06987e-14
-1.76154e-13
-9.91356e-15
1.9227e-12
-7.99742e-14
1.90767e-12
-7.18649e-14
-2.20753e-13
-1.9567e-12
5.52419e-14
-1.53175e-12
6.18339e-14
-1.82748e-13
-1.01e-14
1.99463e-12
-8.14714e-14
1.97905e-12
-7.32098e-14
-2.29015e-13
-2.02991e-12
5.6255e-14
-1.58801e-12
6.29688e-14
-1.89466e-13
-1.0285e-14
2.06788e-12
-8.29664e-14
2.05172e-12
-7.45537e-14
-2.37431e-13
-2.10447e-12
5.72697e-14
-1.64527e-12
6.41034e-14
-1.96298e-13
-1.04701e-14
2.14246e-12
-8.44602e-14
2.12571e-12
-7.58953e-14
-2.45995e-13
-2.18036e-12
5.82835e-14
-1.70356e-12
6.52392e-14
-2.03255e-13
-1.06546e-14
2.21835e-12
-8.59554e-14
2.20101e-12
-7.72395e-14
-2.54712e-13
-2.2576e-12
5.92982e-14
-1.76286e-12
6.63743e-14
-2.10332e-13
-1.08411e-14
2.29557e-12
-8.74527e-14
2.27763e-12
-7.85846e-14
-2.6358e-13
-2.33618e-12
6.03127e-14
-1.82317e-12
6.75108e-14
-2.17532e-13
-1.10255e-14
2.3741e-12
-8.89482e-14
2.35555e-12
-7.9929e-14
-2.72601e-13
-2.41611e-12
6.13266e-14
-1.8845e-12
6.86446e-14
-2.2485e-13
-1.12123e-14
2.45396e-12
-9.04446e-14
2.43478e-12
-8.12729e-14
-2.81773e-13
-2.49739e-12
6.2341e-14
-1.94684e-12
6.9781e-14
-2.32292e-13
-1.13963e-14
2.53513e-12
-9.19394e-14
2.51532e-12
-8.26168e-14
-2.91097e-13
-2.58e-12
6.33544e-14
-2.0102e-12
7.09148e-14
-2.39854e-13
-1.15826e-14
2.61763e-12
-9.3435e-14
2.59717e-12
-8.39604e-14
-3.00572e-13
-2.66396e-12
6.4367e-14
-2.07457e-12
7.20487e-14
-2.47537e-13
-1.17668e-14
2.70144e-12
-9.49274e-14
2.68033e-12
-8.53017e-14
-3.10199e-13
-2.74927e-12
6.53795e-14
-2.13995e-12
7.31813e-14
-2.55339e-13
-1.19531e-14
2.78658e-12
-9.64216e-14
2.7648e-12
-8.66438e-14
-3.19977e-13
-2.83591e-12
6.63929e-14
-2.20634e-12
7.43163e-14
-2.63263e-13
-1.21369e-14
2.87303e-12
-9.79145e-14
2.85058e-12
-8.79859e-14
-3.29906e-13
-2.9239e-12
6.74062e-14
-2.27375e-12
7.545e-14
-2.71307e-13
-1.23231e-14
2.9608e-12
-9.941e-14
2.93766e-12
-8.93294e-14
-3.39987e-13
-3.01322e-12
6.84206e-14
-2.34217e-12
7.65862e-14
-2.79474e-13
-1.25071e-14
3.0499e-12
-1.00904e-13
3.02606e-12
-9.06726e-14
-3.50219e-13
-3.1039e-12
6.9434e-14
-2.4116e-12
7.77197e-14
-2.8776e-13
-1.2694e-14
3.14031e-12
-1.02401e-13
3.11577e-12
-9.20168e-14
-3.60603e-13
-3.19591e-12
7.04488e-14
-2.48205e-12
7.88563e-14
-2.96168e-13
-1.2878e-14
3.23204e-12
-1.03895e-13
3.20678e-12
-9.33604e-14
-3.71139e-13
-3.28927e-12
7.1463e-14
-2.55351e-12
7.99913e-14
-3.04696e-13
-1.30642e-14
3.3251e-12
-1.05392e-13
3.29911e-12
-9.47052e-14
-3.81826e-13
-3.38398e-12
7.24771e-14
-2.62599e-12
8.11268e-14
-3.13346e-13
-1.32483e-14
3.41947e-12
-1.06886e-13
3.39275e-12
-9.60479e-14
-3.92665e-13
-3.48003e-12
7.34897e-14
-2.69948e-12
8.22595e-14
-3.22116e-13
-1.34353e-14
3.51517e-12
-1.08382e-13
3.48769e-12
-9.73912e-14
-4.03655e-13
-3.57742e-12
7.45041e-14
-2.77398e-12
8.33955e-14
-3.31007e-13
-1.36193e-14
3.61218e-12
-1.09876e-13
3.58395e-12
-9.87345e-14
-4.14797e-13
-3.67615e-12
7.55185e-14
-2.8495e-12
8.45306e-14
-3.4002e-13
-1.38055e-14
3.71052e-12
-1.11373e-13
3.68152e-12
-1.00079e-13
-4.2609e-13
-3.77623e-12
7.65328e-14
-2.92604e-12
8.56665e-14
-3.49154e-13
-1.399e-14
3.81017e-12
-1.12868e-13
3.7804e-12
-1.01423e-13
-4.37535e-13
-3.87766e-12
7.75463e-14
-3.00358e-12
8.68002e-14
-3.58407e-13
-1.41764e-14
3.91115e-12
-1.14364e-13
3.88058e-12
-1.02767e-13
-4.49132e-13
-3.98042e-12
7.85599e-14
-3.08214e-12
8.79355e-14
-3.67784e-13
-1.43608e-14
4.01345e-12
-1.15858e-13
3.98208e-12
-1.0411e-13
-4.60881e-13
-4.08453e-12
7.95722e-14
-3.16172e-12
8.90683e-14
-3.7728e-13
-1.45462e-14
4.11706e-12
-1.17351e-13
4.08488e-12
-1.05451e-13
-4.72781e-13
-4.18998e-12
8.05838e-14
-3.2423e-12
9.02001e-14
-3.86897e-13
-1.47314e-14
4.22199e-12
-1.18843e-13
4.189e-12
-1.06792e-13
-4.84831e-13
-4.29678e-12
8.15975e-14
-3.3239e-12
9.13355e-14
-3.96634e-13
-1.49162e-14
4.32824e-12
-1.20337e-13
4.29442e-12
-1.08135e-13
-4.97034e-13
-4.40491e-12
8.26103e-14
-3.40651e-12
9.2469e-14
-4.06493e-13
-1.51016e-14
4.43581e-12
-1.21831e-13
4.40115e-12
-1.09478e-13
-5.09388e-13
-4.51439e-12
8.36229e-14
-3.49013e-12
9.3602e-14
-4.16472e-13
-1.52871e-14
4.5447e-12
-1.23325e-13
4.50918e-12
-1.10819e-13
-5.21893e-13
-4.62521e-12
8.46366e-14
-3.57477e-12
9.47374e-14
-4.26574e-13
-1.54715e-14
4.65491e-12
-1.24819e-13
4.61853e-12
-1.12163e-13
-5.34551e-13
-4.73737e-12
8.56504e-14
-3.66042e-12
9.58714e-14
-4.36794e-13
-1.56579e-14
4.76644e-12
-1.26315e-13
4.72919e-12
-1.13506e-13
-5.47359e-13
-4.85088e-12
8.66648e-14
-3.74708e-12
9.70076e-14
-4.47137e-13
-1.58424e-14
4.87929e-12
-1.2781e-13
4.84116e-12
-1.1485e-13
-5.6032e-13
-4.96573e-12
8.76792e-14
-3.83476e-12
9.81426e-14
-4.57601e-13
-1.60285e-14
4.99346e-12
-1.29307e-13
4.95443e-12
-1.16195e-13
-5.73432e-13
-5.08192e-12
8.86931e-14
-3.92346e-12
9.9278e-14
-4.68187e-13
-1.6213e-14
5.10895e-12
-1.30801e-13
5.06902e-12
-1.17538e-13
-5.86696e-13
-5.19946e-12
8.97062e-14
-4.01316e-12
1.00411e-13
-4.78891e-13
-1.63994e-14
5.22576e-12
-1.32297e-13
5.18492e-12
-1.18881e-13
-6.00111e-13
-5.31834e-12
9.07204e-14
-4.10388e-12
1.01547e-13
-4.89718e-13
-1.65837e-14
5.34389e-12
-1.33791e-13
5.30213e-12
-1.20225e-13
-6.13678e-13
-5.43857e-12
9.17348e-14
-4.19562e-12
1.02682e-13
-5.00665e-13
-1.67698e-14
5.46335e-12
-1.35288e-13
5.42065e-12
-1.21569e-13
-6.27396e-13
-5.56013e-12
9.27491e-14
-4.28837e-12
1.03818e-13
-5.11734e-13
-1.69545e-14
5.58412e-12
-1.36783e-13
5.54047e-12
-1.22913e-13
-6.41266e-13
-5.68305e-12
9.3763e-14
-4.38213e-12
1.04952e-13
-5.22923e-13
-1.71406e-14
5.70621e-12
-1.38279e-13
5.66161e-12
-1.24257e-13
-6.55288e-13
-5.8073e-12
9.47768e-14
-4.47691e-12
1.06088e-13
-5.34234e-13
-1.73253e-14
5.82962e-12
-1.39774e-13
5.78406e-12
-1.25601e-13
-6.69461e-13
-5.93291e-12
9.57899e-14
-4.5727e-12
1.07221e-13
-5.45666e-13
-1.75107e-14
5.95436e-12
-1.41268e-13
5.90782e-12
-1.26943e-13
-6.83786e-13
-6.05985e-12
9.68021e-14
-4.6695e-12
1.08354e-13
-5.57218e-13
-1.76957e-14
6.08041e-12
-1.4276e-13
6.03288e-12
-1.28284e-13
-6.98262e-13
-6.18813e-12
9.78159e-14
-4.76731e-12
1.09489e-13
-5.68889e-13
-1.78804e-14
6.20778e-12
-1.44254e-13
6.15926e-12
-1.29627e-13
-7.12889e-13
-6.31776e-12
9.88288e-14
-4.86614e-12
1.10623e-13
-5.80683e-13
-1.80659e-14
6.33647e-12
-1.45749e-13
6.28694e-12
-1.3097e-13
-7.27668e-13
-6.44873e-12
9.98428e-14
-4.96598e-12
1.11758e-13
-5.92596e-13
-1.82513e-14
6.46648e-12
-1.47244e-13
6.41594e-12
-1.32313e-13
-7.42598e-13
-6.58104e-12
1.00857e-13
-5.06684e-12
1.12893e-13
-6.04634e-13
-1.84366e-14
6.59781e-12
-1.4874e-13
6.54624e-12
-1.33658e-13
-7.57681e-13
-6.7147e-12
1.01872e-13
-5.16871e-12
1.14029e-13
-6.16788e-13
-1.86222e-14
6.73046e-12
-1.50236e-13
6.67786e-12
-1.35001e-13
-7.72914e-13
-6.8497e-12
1.02886e-13
-5.2716e-12
1.15164e-13
-6.29068e-13
-1.88078e-14
6.86443e-12
-1.51733e-13
6.81078e-12
-1.36347e-13
-7.883e-13
-6.98605e-12
1.039e-13
-5.3755e-12
1.163e-13
-6.41467e-13
-1.89933e-14
6.99972e-12
-1.53229e-13
6.94502e-12
-1.37691e-13
-8.03838e-13
-7.12374e-12
1.04913e-13
-5.48041e-12
1.17434e-13
-6.53989e-13
-1.91791e-14
7.13634e-12
-1.54724e-13
7.08056e-12
-1.39035e-13
-8.19528e-13
-7.26277e-12
1.0593e-13
-5.58634e-12
1.18571e-13
-6.66626e-13
-1.93627e-14
7.27427e-12
-1.56218e-13
7.21742e-12
-1.40377e-13
-8.35366e-13
-7.40315e-12
1.06943e-13
-5.69328e-12
1.19706e-13
-6.7939e-13
-1.95497e-14
7.41353e-12
-1.57717e-13
7.35558e-12
-1.41724e-13
-8.51359e-13
-7.54488e-12
1.07958e-13
-5.80124e-12
1.20841e-13
-6.92272e-13
-1.97348e-14
7.55411e-12
-1.59212e-13
7.49506e-12
-1.43068e-13
-8.67503e-13
-7.68794e-12
1.08971e-13
-5.91021e-12
1.21975e-13
-7.05279e-13
-1.99213e-14
7.696e-12
-1.60709e-13
7.63585e-12
-1.44413e-13
-8.83801e-13
-7.83236e-12
1.09987e-13
-6.02019e-12
1.23113e-13
-7.18402e-13
-2.01048e-14
7.83922e-12
-1.62203e-13
7.77795e-12
-1.45755e-13
-9.00247e-13
-7.97811e-12
1.10996e-13
-6.13119e-12
1.24243e-13
-7.3165e-13
-2.02907e-14
7.98375e-12
-1.63695e-13
7.92135e-12
-1.47096e-13
-9.16846e-13
-8.12521e-12
1.12002e-13
-6.24319e-12
1.2537e-13
-7.45016e-13
-2.04704e-14
8.12959e-12
-1.65171e-13
8.06606e-12
-1.48423e-13
-9.33591e-13
-8.27363e-12
1.13013e-13
-6.35618e-12
1.26489e-13
-7.58475e-13
-2.06601e-14
8.27677e-12
-1.66658e-13
8.21208e-12
-1.49754e-13
-9.50475e-13
-8.42338e-12
1.14033e-13
-6.47024e-12
1.27651e-13
-7.7211e-13
-2.08435e-14
8.42524e-12
-1.68179e-13
8.35939e-12
-1.51131e-13
-9.67544e-13
-8.57452e-12
1.15048e-13
-6.58529e-12
1.28776e-13
-7.85842e-13
-2.10379e-14
8.57505e-12
-1.6968e-13
8.50803e-12
-1.52473e-13
-9.84755e-13
-8.72699e-12
1.16054e-13
-6.70134e-12
1.29903e-13
-7.99691e-13
-2.12165e-14
8.72617e-12
-1.71155e-13
8.65797e-12
-1.53799e-13
-1.00211e-12
-8.88079e-12
1.17065e-13
-6.81841e-12
1.31035e-13
-8.13665e-13
-2.14014e-14
8.8786e-12
-1.72646e-13
8.80921e-12
-1.5514e-13
-1.01962e-12
-9.03593e-12
1.18081e-13
-6.93649e-12
1.32172e-13
-8.27754e-13
-2.15858e-14
9.03236e-12
-1.74141e-13
8.96177e-12
-1.56483e-13
-1.03728e-12
-9.19241e-12
1.19094e-13
-7.05559e-12
1.33307e-13
-8.4197e-13
-2.1772e-14
9.18744e-12
-1.75639e-13
9.11563e-12
-1.57829e-13
-1.05509e-12
-9.35024e-12
1.20109e-13
-7.1757e-12
1.34442e-13
-8.56305e-13
-2.19577e-14
9.34384e-12
-1.77135e-13
9.27081e-12
-1.59173e-13
-1.07305e-12
-9.50941e-12
1.21122e-13
-7.29682e-12
1.35577e-13
-8.70763e-13
-2.21432e-14
9.50155e-12
-1.7863e-13
9.42729e-12
-1.60517e-13
-1.09117e-12
-9.66993e-12
1.22138e-13
-7.41896e-12
1.36713e-13
-8.85337e-13
-2.23278e-14
9.6606e-12
-1.80126e-13
9.58509e-12
-1.6186e-13
-1.10943e-12
-9.83179e-12
1.23152e-13
-7.54211e-12
1.37848e-13
-9.00036e-13
-2.25134e-14
9.82096e-12
-1.81622e-13
9.7442e-12
-1.63205e-13
-1.12785e-12
-9.99499e-12
1.24166e-13
-7.66628e-12
1.38984e-13
-9.14854e-13
-2.26991e-14
9.98264e-12
-1.83118e-13
9.90461e-12
-1.64549e-13
-1.14642e-12
-1.01595e-11
1.2518e-13
-7.79146e-12
1.40119e-13
-9.29796e-13
-2.28844e-14
1.01456e-11
-1.84614e-13
1.00663e-11
-1.65894e-13
-1.16514e-12
-1.03254e-11
1.26195e-13
-7.91766e-12
1.41254e-13
-9.44855e-13
-2.30701e-14
1.031e-11
-1.8611e-13
1.02294e-11
-1.67238e-13
-1.18402e-12
-1.04927e-11
1.27209e-13
-8.04487e-12
1.4239e-13
-9.60039e-13
-2.32551e-14
1.04756e-11
-1.87606e-13
1.03937e-11
-1.68582e-13
-1.20304e-12
-1.06613e-11
1.28222e-13
-8.17309e-12
1.43524e-13
-9.75342e-13
-2.34407e-14
1.06426e-11
-1.891e-13
1.05594e-11
-1.69925e-13
-1.22222e-12
-1.08312e-11
1.29235e-13
-8.30233e-12
1.44657e-13
-9.90766e-13
-2.36258e-14
1.08109e-11
-1.90593e-13
1.07264e-11
-1.71267e-13
-1.24154e-12
-1.10024e-11
1.30248e-13
-8.43258e-12
1.45792e-13
-1.00631e-12
-2.38108e-14
1.09805e-11
-1.92088e-13
1.08946e-11
-1.7261e-13
-1.26102e-12
-1.11751e-11
1.31261e-13
-8.56384e-12
1.46926e-13
-1.02198e-12
-2.39959e-14
1.11514e-11
-1.93582e-13
1.10642e-11
-1.73952e-13
-1.28065e-12
-1.1349e-11
1.32275e-13
-8.69611e-12
1.4806e-13
-1.03776e-12
-2.41814e-14
1.13236e-11
-1.95076e-13
1.12351e-11
-1.75295e-13
-1.30044e-12
-1.15243e-11
1.33289e-13
-8.8294e-12
1.49195e-13
-1.05367e-12
-2.43661e-14
1.14972e-11
-1.96571e-13
1.14073e-11
-1.76638e-13
-1.32037e-12
-1.17009e-11
1.34302e-13
-8.96371e-12
1.5033e-13
-1.0697e-12
-2.45522e-14
1.16721e-11
-1.98067e-13
1.15808e-11
-1.77982e-13
-1.34045e-12
-1.18789e-11
1.35317e-13
-9.09902e-12
1.51465e-13
-1.08585e-12
-2.47369e-14
1.18483e-11
-1.99562e-13
1.17557e-11
-1.79326e-13
-1.36069e-12
-1.20583e-11
1.36331e-13
-9.23536e-12
1.526e-13
-1.10212e-12
-2.49227e-14
1.20258e-11
-2.01058e-13
1.19318e-11
-1.8067e-13
-1.38108e-12
-1.22389e-11
1.37345e-13
-9.3727e-12
1.53735e-13
-1.11851e-12
-2.51075e-14
1.22046e-11
-2.02553e-13
1.21092e-11
-1.82013e-13
-1.40162e-12
-1.24209e-11
1.38358e-13
-9.51106e-12
1.54869e-13
-1.13502e-12
-2.52935e-14
1.23848e-11
-2.04048e-13
1.2288e-11
-1.83356e-13
-1.42231e-12
-1.26043e-11
1.39372e-13
-9.65043e-12
1.56004e-13
-1.15165e-12
-2.54782e-14
1.25663e-11
-2.05542e-13
1.2468e-11
-1.847e-13
-1.44315e-12
-1.2789e-11
1.40386e-13
-9.79082e-12
1.57139e-13
-1.16841e-12
-2.5664e-14
1.27491e-11
-2.07038e-13
1.26494e-11
-1.86044e-13
-1.46415e-12
-1.2975e-11
1.414e-13
-9.93222e-12
1.58275e-13
-1.18528e-12
-2.58489e-14
1.29332e-11
-2.08533e-13
1.28321e-11
-1.87388e-13
-1.4853e-12
-1.31624e-11
1.42414e-13
-1.00746e-11
1.59409e-13
-1.20228e-12
-2.60347e-14
1.31186e-11
-2.10029e-13
1.30161e-11
-1.88731e-13
-1.50659e-12
-1.33512e-11
1.43427e-13
-1.02181e-11
1.60544e-13
-1.2194e-12
-2.62195e-14
1.33054e-11
-2.11523e-13
1.32014e-11
-1.90074e-13
-1.52804e-12
-1.35412e-11
1.4444e-13
-1.03625e-11
1.61677e-13
-1.23663e-12
-2.64049e-14
1.34935e-11
-2.13017e-13
1.3388e-11
-1.91416e-13
-1.54964e-12
-1.37326e-11
1.45452e-13
-1.0508e-11
1.6281e-13
-1.25399e-12
-2.65901e-14
1.36829e-11
-2.1451e-13
1.35759e-11
-1.92758e-13
-1.5714e-12
-1.39254e-11
1.46466e-13
-1.06544e-11
1.63945e-13
-1.27147e-12
-2.67754e-14
1.38736e-11
-2.16005e-13
1.37652e-11
-1.94102e-13
-1.5933e-12
-1.41195e-11
1.47479e-13
-1.08019e-11
1.65079e-13
-1.28907e-12
-2.69608e-14
1.40656e-11
-2.175e-13
1.39557e-11
-1.95445e-13
-1.61536e-12
-1.4315e-11
1.48492e-13
-1.09504e-11
1.66213e-13
-1.30679e-12
-2.7146e-14
1.4259e-11
-2.18993e-13
1.41475e-11
-1.96787e-13
-1.63756e-12
-1.45117e-11
1.49506e-13
-1.10999e-11
1.67348e-13
-1.32464e-12
-2.73307e-14
1.44537e-11
-2.20487e-13
1.43407e-11
-1.9813e-13
-1.65992e-12
-1.47099e-11
1.50519e-13
-1.12504e-11
1.68482e-13
-1.3426e-12
-2.75167e-14
1.46497e-11
-2.21983e-13
1.45352e-11
-1.99473e-13
-1.68243e-12
-1.49093e-11
1.51533e-13
-1.1402e-11
1.69617e-13
-1.36069e-12
-2.77014e-14
1.4847e-11
-2.23478e-13
1.47309e-11
-2.00817e-13
-1.70509e-12
-1.51102e-11
1.52547e-13
-1.15545e-11
1.70752e-13
-1.37889e-12
-2.78872e-14
1.50456e-11
-2.24974e-13
1.4928e-11
-2.02161e-13
-1.72791e-12
-1.53123e-11
1.53561e-13
-1.17081e-11
1.71887e-13
-1.39722e-12
-2.8072e-14
1.52456e-11
-2.26468e-13
1.51264e-11
-2.03504e-13
-1.75087e-12
-1.55158e-11
1.54574e-13
-1.18626e-11
1.73021e-13
-1.41566e-12
-2.82582e-14
1.54469e-11
-2.27964e-13
1.53261e-11
-2.04847e-13
-1.77399e-12
-1.57207e-11
1.55588e-13
-1.20182e-11
1.74156e-13
-1.43423e-12
-2.84426e-14
1.56495e-11
-2.29458e-13
1.55271e-11
-2.0619e-13
-1.79726e-12
-1.59269e-11
1.56602e-13
-1.21748e-11
1.75291e-13
-1.45292e-12
-2.86284e-14
1.58534e-11
-2.30953e-13
1.57295e-11
-2.07534e-13
-1.82068e-12
-1.61344e-11
1.57616e-13
-1.23324e-11
1.76426e-13
-1.47173e-12
-2.88131e-14
1.60586e-11
-2.32448e-13
1.59331e-11
-2.08877e-13
-1.84425e-12
-1.63433e-11
1.58629e-13
-1.24911e-11
1.7756e-13
-1.49066e-12
-2.89991e-14
1.62652e-11
-2.33944e-13
1.6138e-11
-2.10221e-13
-1.86797e-12
-1.65535e-11
1.59644e-13
-1.26507e-11
1.78695e-13
-1.50972e-12
-2.91837e-14
1.64731e-11
-2.35438e-13
1.63443e-11
-2.11564e-13
-1.89185e-12
-1.67651e-11
1.60657e-13
-1.28114e-11
1.79829e-13
-1.52889e-12
-2.93694e-14
1.66823e-11
-2.36933e-13
1.65519e-11
-2.12907e-13
-1.91587e-12
-1.6978e-11
1.61671e-13
-1.29731e-11
1.80964e-13
-1.54818e-12
-2.95541e-14
1.68928e-11
-2.38427e-13
1.67607e-11
-2.1425e-13
-1.94005e-12
-1.71922e-11
1.62683e-13
-1.31357e-11
1.82097e-13
-1.5676e-12
-2.97405e-14
1.71046e-11
-2.39922e-13
1.69709e-11
-2.15593e-13
-1.96438e-12
-1.74078e-11
1.63697e-13
-1.32994e-11
1.83232e-13
-1.58713e-12
-2.99249e-14
1.73178e-11
-2.41416e-13
1.71824e-11
-2.16936e-13
-1.98886e-12
-1.76247e-11
1.6471e-13
-1.34641e-11
1.84367e-13
-1.60679e-12
-3.01106e-14
1.75322e-11
-2.42911e-13
1.73952e-11
-2.18279e-13
-2.01349e-12
-1.7843e-11
1.65724e-13
-1.36299e-11
1.85502e-13
-1.62657e-12
-3.02953e-14
1.7748e-11
-2.44406e-13
1.76093e-11
-2.19622e-13
-2.03827e-12
-1.80626e-11
1.66738e-13
-1.37966e-11
1.86636e-13
-1.64647e-12
-3.04813e-14
1.79652e-11
-2.45901e-13
1.78247e-11
-2.20966e-13
-2.06321e-12
-1.82836e-11
1.67752e-13
-1.39644e-11
1.87771e-13
-1.66649e-12
-3.0666e-14
1.81836e-11
-2.47396e-13
1.80415e-11
-2.22309e-13
-2.0883e-12
-1.85059e-11
1.68766e-13
-1.41331e-11
1.88906e-13
-1.68663e-12
-3.08516e-14
1.84033e-11
-2.48891e-13
1.82595e-11
-2.23653e-13
-2.11354e-12
-1.87296e-11
1.69779e-13
-1.43029e-11
1.90041e-13
-1.70689e-12
-3.10365e-14
1.86244e-11
-2.50386e-13
1.84789e-11
-2.24996e-13
-2.13892e-12
-1.89546e-11
1.70793e-13
-1.44737e-11
1.91175e-13
-1.72727e-12
-3.12225e-14
1.88468e-11
-2.51881e-13
1.86995e-11
-2.2634e-13
-2.16447e-12
-1.91809e-11
1.71807e-13
-1.46455e-11
1.9231e-13
-1.74777e-12
-3.14073e-14
1.90705e-11
-2.53376e-13
1.89215e-11
-2.27683e-13
-2.19016e-12
-1.94086e-11
1.7282e-13
-1.48183e-11
1.93444e-13
-1.7684e-12
-3.15929e-14
1.92956e-11
-2.54871e-13
1.91448e-11
-2.29026e-13
-2.216e-12
-1.96376e-11
1.73834e-13
-1.49922e-11
1.94579e-13
-1.78914e-12
-3.17779e-14
1.95219e-11
-2.56366e-13
1.93693e-11
-2.3037e-13
-2.242e-12
-1.9868e-11
1.74848e-13
-1.5167e-11
1.95713e-13
-1.81001e-12
-3.19636e-14
1.97496e-11
-2.57861e-13
1.95952e-11
-2.31713e-13
-2.26815e-12
-2.00997e-11
1.75861e-13
-1.53429e-11
1.96848e-13
-1.831e-12
-3.21484e-14
1.99786e-11
-2.59355e-13
1.98225e-11
-2.33056e-13
-2.29445e-12
-2.03328e-11
1.76874e-13
-1.55197e-11
1.97982e-13
-1.8521e-12
-3.23337e-14
2.02089e-11
-2.60849e-13
2.0051e-11
-2.34398e-13
-2.3209e-12
-2.05672e-11
1.77887e-13
-1.56976e-11
1.99115e-13
-1.87333e-12
-3.2519e-14
2.04406e-11
-2.62342e-13
2.02808e-11
-2.3574e-13
-2.3475e-12
-2.08029e-11
1.789e-13
-1.58765e-11
2.00251e-13
-1.89468e-12
-3.27047e-14
2.06735e-11
-2.63839e-13
2.05119e-11
-2.37086e-13
-2.37426e-12
-2.104e-11
1.79914e-13
-1.60564e-11
2.01385e-13
-1.91616e-12
-3.28904e-14
2.09078e-11
-2.65335e-13
2.07444e-11
-2.38429e-13
-2.40116e-12
-2.12784e-11
1.80927e-13
-1.62374e-11
2.02518e-13
-1.93775e-12
-3.30754e-14
2.11434e-11
-2.66828e-13
2.09781e-11
-2.39771e-13
-2.42822e-12
-2.15182e-11
1.81941e-13
-1.64193e-11
2.03653e-13
-1.95946e-12
-3.32602e-14
2.13803e-11
-2.68322e-13
2.12132e-11
-2.41113e-13
-2.45543e-12
-2.17593e-11
1.82954e-13
-1.66023e-11
2.04787e-13
-1.9813e-12
-3.3446e-14
2.16185e-11
-2.69817e-13
2.14495e-11
-2.42457e-13
-2.48279e-12
-2.20017e-11
1.83968e-13
-1.67862e-11
2.05922e-13
-2.00325e-12
-3.36308e-14
2.18581e-11
-2.71312e-13
2.16872e-11
-2.438e-13
-2.5103e-12
-2.22455e-11
1.84982e-13
-1.69712e-11
2.07057e-13
-2.02533e-12
-3.38165e-14
2.20989e-11
-2.72807e-13
2.19262e-11
-2.45144e-13
-2.53797e-12
-2.24907e-11
1.85995e-13
-1.71572e-11
2.08192e-13
-2.04752e-12
-3.40014e-14
2.23411e-11
-2.74302e-13
2.21665e-11
-2.46487e-13
-2.56578e-12
-2.27372e-11
1.87009e-13
-1.73442e-11
2.09326e-13
-2.06984e-12
-3.41873e-14
2.25847e-11
-2.75797e-13
2.24081e-11
-2.4783e-13
-2.59375e-12
-2.2985e-11
1.88023e-13
-1.75323e-11
2.10461e-13
-2.09228e-12
-3.43721e-14
2.28295e-11
-2.77291e-13
2.2651e-11
-2.49173e-13
-2.62187e-12
-2.32342e-11
1.89036e-13
-1.77213e-11
2.11595e-13
-2.11484e-12
-3.45576e-14
2.30756e-11
-2.78787e-13
2.28953e-11
-2.50517e-13
-2.65014e-12
-2.34847e-11
1.9005e-13
-1.79113e-11
2.1273e-13
-2.13752e-12
-3.47426e-14
2.33231e-11
-2.80281e-13
2.31408e-11
-2.5186e-13
-2.67856e-12
-2.37366e-11
1.91063e-13
-1.81024e-11
2.13865e-13
-2.16032e-12
-3.49283e-14
2.35719e-11
-2.81776e-13
2.33877e-11
-2.53203e-13
-2.70713e-12
-2.39898e-11
1.92077e-13
-1.82945e-11
2.14999e-13
-2.18325e-12
-3.51131e-14
2.3822e-11
-2.83271e-13
2.36358e-11
-2.54546e-13
-2.73586e-12
-2.42443e-11
1.93091e-13
-1.84876e-11
2.16134e-13
-2.20629e-12
-3.52987e-14
2.40734e-11
-2.84766e-13
2.38853e-11
-2.5589e-13
-2.76473e-12
-2.45002e-11
1.94105e-13
-1.86817e-11
2.17269e-13
-2.22945e-12
-3.54835e-14
2.43262e-11
-2.8626e-13
2.41361e-11
-2.57233e-13
-2.79376e-12
-2.47574e-11
1.95117e-13
-1.88768e-11
2.18402e-13
-2.25274e-12
-3.56698e-14
2.45803e-11
-2.87756e-13
2.43881e-11
-2.58577e-13
-2.82294e-12
-2.5016e-11
1.96131e-13
-1.90729e-11
2.19537e-13
-2.27615e-12
-3.58545e-14
2.48357e-11
-2.8925e-13
2.46415e-11
-2.59919e-13
-2.85227e-12
-2.52759e-11
1.97145e-13
-1.92701e-11
2.20672e-13
-2.29967e-12
-3.604e-14
2.50924e-11
-2.90745e-13
2.48962e-11
-2.61263e-13
-2.88176e-12
-2.55372e-11
1.98158e-13
-1.94682e-11
2.21806e-13
-2.32332e-12
-3.62249e-14
2.53504e-11
-2.92239e-13
2.51523e-11
-2.62605e-13
-2.91139e-12
-2.57998e-11
1.99172e-13
-1.96674e-11
2.22941e-13
-2.34709e-12
-3.64106e-14
2.56097e-11
-2.93734e-13
2.54096e-11
-2.63949e-13
-2.94118e-12
-2.60637e-11
2.00186e-13
-1.98676e-11
2.24075e-13
-2.37098e-12
-3.65954e-14
2.58704e-11
-2.95229e-13
2.56682e-11
-2.65292e-13
-2.97111e-12
-2.6329e-11
2.01199e-13
-2.00688e-11
2.2521e-13
-2.39499e-12
-3.67809e-14
2.61324e-11
-2.96724e-13
2.59282e-11
-2.66635e-13
-3.0012e-12
-2.65957e-11
2.02213e-13
-2.0271e-11
2.26345e-13
-2.41913e-12
-3.69658e-14
2.63957e-11
-2.98218e-13
2.61894e-11
-2.67978e-13
-3.03144e-12
-2.68636e-11
2.03226e-13
-2.04742e-11
2.27479e-13
-2.44338e-12
-3.71519e-14
2.66604e-11
-2.99714e-13
2.6452e-11
-2.69322e-13
-3.06184e-12
-2.7133e-11
2.0424e-13
-2.06785e-11
2.28614e-13
-2.46775e-12
-3.73366e-14
2.69263e-11
-3.01208e-13
2.67158e-11
-2.70665e-13
-3.09238e-12
-2.74036e-11
2.05253e-13
-2.08837e-11
2.29748e-13
-2.49225e-12
-3.75221e-14
2.71936e-11
-3.02703e-13
2.6981e-11
-2.72008e-13
-3.12308e-12
-2.76756e-11
2.06267e-13
-2.109e-11
2.30883e-13
-2.51686e-12
-3.77068e-14
2.74622e-11
-3.04197e-13
2.72475e-11
-2.73351e-13
-3.15392e-12
-2.7949e-11
2.0728e-13
-2.12973e-11
2.32017e-13
-2.5416e-12
-3.78928e-14
2.77321e-11
-3.05692e-13
2.75153e-11
-2.74694e-13
-3.18492e-12
-2.82237e-11
2.08294e-13
-2.15056e-11
2.33152e-13
-2.56646e-12
-3.80773e-14
2.80033e-11
-3.07186e-13
2.77844e-11
-2.76037e-13
-3.21607e-12
-2.84997e-11
2.09308e-13
-2.17149e-11
2.34286e-13
-2.59144e-12
-3.8263e-14
2.82758e-11
-3.08682e-13
2.80548e-11
-2.77381e-13
-3.24737e-12
-2.87771e-11
2.10322e-13
-2.19252e-11
2.35421e-13
-2.61653e-12
-3.84473e-14
2.85497e-11
-3.10175e-13
2.83266e-11
-2.78723e-13
-3.27882e-12
-2.90558e-11
2.11334e-13
-2.21365e-11
2.36555e-13
-2.64176e-12
-3.86352e-14
2.88249e-11
-3.11674e-13
2.85996e-11
-2.80069e-13
-3.31043e-12
-2.93359e-11
2.12349e-13
-2.23489e-11
2.3769e-13
-2.6671e-12
-3.88193e-14
2.91014e-11
-3.13167e-13
2.8874e-11
-2.81412e-13
-3.34219e-12
-2.96173e-11
2.13362e-13
-2.25622e-11
2.38824e-13
-2.69256e-12
-3.90049e-14
2.93792e-11
-3.14662e-13
2.91496e-11
-2.82755e-13
-3.37409e-12
-2.99001e-11