/*--------------------------------*- C++ -*----------------------------------*\
| =========                 |                                                 |
| \\      /  F ield         | OpenFOAM: The Open Source CFD Toolbox           |
|  \\    /   O peration     | Version:  2206                                  |
|   \\  /    A nd           | Website:  www.openfoam.com                      |
|    \\/     M anipulation  |                                                 |
\*---------------------------------------------------------------------------*/
FoamFile
{
    version     2.0;
    format      ascii;
    arch        "LSB;label=32;scalar=64";
    class       volScalarField;
    location    "5";
    object      p;
}
// * * * * * * * * * * * * * * * * * * * * * * * * * * * * * * * * * * * * * //

dimensions      [0 2 -2 0 0 0 0];

internalField   nonuniform List<scalar> 
36000
(
-2.27295
-773.775
-897.757
954.645
4317.9
7405.06
90619.9
89788.7
89628.2
91604.4
95224.5
98556.1
306837
305989
305838
307887
311624
315070
647562
646855
646888
649103
652940
656449
1.10708e+06
1.10654e+06
1.10675e+06
1.10908e+06
1.11294e+06
1.11642e+06
1.67605e+06
1.67562e+06
1.67595e+06
1.67832e+06
1.68214e+06
1.68557e+06
2.34761e+06
2.34727e+06
2.34765e+06
2.35e+06
2.35371e+06
2.35702e+06
3.11413e+06
3.11387e+06
3.11428e+06
3.11656e+06
3.12011e+06
3.12328e+06
3.96723e+06
3.96701e+06
3.96745e+06
3.96963e+06
3.973e+06
3.97599e+06
4.8982e+06
4.89804e+06
4.89848e+06
4.90057e+06
4.90376e+06
4.90659e+06
5.8996e+06
5.89947e+06
5.89991e+06
5.90193e+06
5.90497e+06
5.90766e+06
6.96573e+06
6.96563e+06
6.96607e+06
6.96801e+06
6.97092e+06
6.97349e+06
8.09189e+06
8.09181e+06
8.09225e+06
8.09412e+06
8.0969e+06
8.09936e+06
9.27397e+06
9.27391e+06
9.27435e+06
9.27615e+06
9.27883e+06
9.28118e+06
1.05083e+07
1.05083e+07
1.05087e+07
1.05105e+07
1.0513e+07
1.05153e+07
1.17914e+07
1.17914e+07
1.17918e+07
1.17936e+07
1.1796e+07
1.17982e+07
1.31199e+07
1.31199e+07
1.31204e+07
1.3122e+07
1.31244e+07
1.31266e+07
1.44911e+07
1.44911e+07
1.44916e+07
1.44932e+07
1.44956e+07
1.44976e+07
1.59029e+07
1.59029e+07
1.59034e+07
1.5905e+07
1.59072e+07
1.59092e+07
1.73534e+07
1.73534e+07
1.73538e+07
1.73554e+07
1.73576e+07
1.73595e+07
1.88407e+07
1.88408e+07
1.88412e+07
1.88427e+07
1.88449e+07
1.88467e+07
2.03635e+07
2.03635e+07
2.0364e+07
2.03655e+07
2.03675e+07
2.03693e+07
2.19202e+07
2.19203e+07
2.19207e+07
2.19222e+07
2.19242e+07
2.19259e+07
2.35097e+07
2.35098e+07
2.35102e+07
2.35116e+07
2.35136e+07
2.35153e+07
2.51307e+07
2.51308e+07
2.51312e+07
2.51326e+07
2.51345e+07
2.51362e+07
2.67822e+07
2.67823e+07
2.67827e+07
2.67841e+07
2.6786e+07
2.67876e+07
2.84633e+07
2.84634e+07
2.84638e+07
2.84651e+07
2.8467e+07
2.84685e+07
3.0173e+07
3.01731e+07
3.01735e+07
3.01748e+07
3.01766e+07
3.01781e+07
3.19105e+07
3.19106e+07
3.1911e+07
3.19123e+07
3.19141e+07
3.19156e+07
3.36751e+07
3.36752e+07
3.36756e+07
3.36769e+07
3.36786e+07
3.368e+07
3.5466e+07
3.54661e+07
3.54665e+07
3.54677e+07
3.54694e+07
3.54708e+07
3.72824e+07
3.72825e+07
3.72829e+07
3.72841e+07
3.72857e+07
3.72872e+07
3.91235e+07
3.91236e+07
3.9124e+07
3.91252e+07
3.91268e+07
3.91282e+07
4.09885e+07
4.09886e+07
4.09889e+07
4.09901e+07
4.09917e+07
4.0993e+07
4.28763e+07
4.28765e+07
4.28768e+07
4.2878e+07
4.28795e+07
4.28808e+07
4.47865e+07
4.47866e+07
4.4787e+07
4.47881e+07
4.47896e+07
4.47909e+07
4.67184e+07
4.67185e+07
4.67188e+07
4.67199e+07
4.67214e+07
4.67227e+07
4.86715e+07
4.86716e+07
4.86719e+07
4.8673e+07
4.86745e+07
4.86757e+07
5.06454e+07
5.06455e+07
5.06458e+07
5.06469e+07
5.06484e+07
5.06496e+07
5.26398e+07
5.26399e+07
5.26402e+07
5.26413e+07
5.26427e+07
5.26439e+07
5.46542e+07
5.46543e+07
5.46546e+07
5.46557e+07
5.46571e+07
5.46582e+07
5.66883e+07
5.66884e+07
5.66887e+07
5.66898e+07
5.66911e+07
5.66923e+07
5.87418e+07
5.87419e+07
5.87422e+07
5.87432e+07
5.87446e+07
5.87457e+07
6.08143e+07
6.08144e+07
6.08147e+07
6.08157e+07
6.0817e+07
6.08182e+07
6.29055e+07
6.29056e+07
6.29059e+07
6.29069e+07
6.29082e+07
6.29093e+07
6.50151e+07
6.50152e+07
6.50156e+07
6.50165e+07
6.50178e+07
6.50189e+07
6.71429e+07
6.7143e+07
6.71434e+07
6.71443e+07
6.71456e+07
6.71467e+07
6.92886e+07
6.92887e+07
6.9289e+07
6.92899e+07
6.92912e+07
6.92923e+07
7.14517e+07
7.14518e+07
7.14522e+07
7.14531e+07
7.14543e+07
7.14554e+07
7.36321e+07
7.36322e+07
7.36325e+07
7.36335e+07
7.36347e+07
7.36357e+07
7.58294e+07
7.58295e+07
7.58298e+07
7.58307e+07
7.58319e+07
7.5833e+07
7.80434e+07
7.80435e+07
7.80438e+07
7.80447e+07
7.80459e+07
7.80469e+07
8.02739e+07
8.0274e+07
8.02744e+07
8.02753e+07
8.02764e+07
8.02774e+07
8.25208e+07
8.25209e+07
8.25212e+07
8.25221e+07
8.25232e+07
8.25242e+07
8.47837e+07
8.47838e+07
8.47841e+07
8.4785e+07
8.47862e+07
8.47872e+07
8.70626e+07
8.70627e+07
8.7063e+07
8.70639e+07
8.7065e+07
8.7066e+07
8.93571e+07
8.93572e+07
8.93575e+07
8.93584e+07
8.93595e+07
8.93604e+07
9.16668e+07
9.16669e+07
9.16672e+07
9.1668e+07
9.16691e+07
9.16701e+07
9.39914e+07
9.39915e+07
9.39918e+07
9.39926e+07
9.39937e+07
9.39946e+07
9.63306e+07
9.63308e+07
9.6331e+07
9.63318e+07
9.63329e+07
9.63338e+07
9.86844e+07
9.86845e+07
9.86848e+07
9.86856e+07
9.86867e+07
9.86876e+07
1.01053e+08
1.01053e+08
1.01053e+08
1.01054e+08
1.01055e+08
1.01056e+08
1.03435e+08
1.03435e+08
1.03435e+08
1.03436e+08
1.03437e+08
1.03438e+08
1.05832e+08
1.05832e+08
1.05832e+08
1.05833e+08
1.05834e+08
1.05835e+08
1.08242e+08
1.08242e+08
1.08243e+08
1.08243e+08
1.08244e+08
1.08245e+08
1.10667e+08
1.10667e+08
1.10667e+08
1.10668e+08
1.10669e+08
1.1067e+08
1.13105e+08
1.13105e+08
1.13105e+08
1.13106e+08
1.13107e+08
1.13108e+08
1.15556e+08
1.15557e+08
1.15557e+08
1.15558e+08
1.15559e+08
1.15559e+08
1.18022e+08
1.18022e+08
1.18022e+08
1.18023e+08
1.18024e+08
1.18025e+08
1.205e+08
1.205e+08
1.20501e+08
1.20501e+08
1.20502e+08
1.20503e+08
1.22992e+08
1.22992e+08
1.22993e+08
1.22993e+08
1.22994e+08
1.22995e+08
1.25497e+08
1.25497e+08
1.25498e+08
1.25498e+08
1.25499e+08
1.255e+08
1.28016e+08
1.28016e+08
1.28016e+08
1.28017e+08
1.28018e+08
1.28018e+08
1.30547e+08
1.30547e+08
1.30547e+08
1.30548e+08
1.30549e+08
1.30549e+08
1.33091e+08
1.33091e+08
1.33091e+08
1.33092e+08
1.33093e+08
1.33094e+08
1.35648e+08
1.35648e+08
1.35648e+08
1.35649e+08
1.3565e+08
1.3565e+08
1.38217e+08
1.38217e+08
1.38217e+08
1.38218e+08
1.38219e+08
1.3822e+08
1.40799e+08
1.40799e+08
1.408e+08
1.408e+08
1.40801e+08
1.40802e+08
1.43394e+08
1.43394e+08
1.43394e+08
1.43395e+08
1.43396e+08
1.43397e+08
1.46001e+08
1.46001e+08
1.46001e+08
1.46002e+08
1.46003e+08
1.46004e+08
1.48621e+08
1.48621e+08
1.48621e+08
1.48622e+08
1.48623e+08
1.48623e+08
1.51252e+08
1.51253e+08
1.51253e+08
1.51253e+08
1.51254e+08
1.51255e+08
1.53896e+08
1.53896e+08
1.53897e+08
1.53897e+08
1.53898e+08
1.53899e+08
1.56552e+08
1.56553e+08
1.56553e+08
1.56553e+08
1.56554e+08
1.56555e+08
1.59221e+08
1.59221e+08
1.59221e+08
1.59222e+08
1.59222e+08
1.59223e+08
1.61901e+08
1.61901e+08
1.61901e+08
1.61902e+08
1.61903e+08
1.61903e+08
1.64593e+08
1.64593e+08
1.64593e+08
1.64594e+08
1.64595e+08
1.64595e+08
1.67297e+08
1.67297e+08
1.67297e+08
1.67298e+08
1.67299e+08
1.67299e+08
1.70012e+08
1.70013e+08
1.70013e+08
1.70013e+08
1.70014e+08
1.70015e+08
1.7274e+08
1.7274e+08
1.7274e+08
1.72741e+08
1.72742e+08
1.72742e+08
1.75479e+08
1.75479e+08
1.75479e+08
1.7548e+08
1.75481e+08
1.75481e+08
1.7823e+08
1.7823e+08
1.7823e+08
1.7823e+08
1.78231e+08
1.78232e+08
1.80992e+08
1.80992e+08
1.80992e+08
1.80993e+08
1.80993e+08
1.80994e+08
1.83765e+08
1.83765e+08
1.83766e+08
1.83766e+08
1.83767e+08
1.83768e+08
1.8655e+08
1.8655e+08
1.86551e+08
1.86551e+08
1.86552e+08
1.86553e+08
1.89347e+08
1.89347e+08
1.89347e+08
1.89348e+08
1.89348e+08
1.89349e+08
1.92154e+08
1.92154e+08
1.92155e+08
1.92155e+08
1.92156e+08
1.92157e+08
1.94973e+08
1.94973e+08
1.94973e+08
1.94974e+08
1.94975e+08
1.94976e+08
1.97803e+08
1.97803e+08
1.97804e+08
1.97804e+08
1.97805e+08
1.97806e+08
2.00644e+08
2.00645e+08
2.00645e+08
2.00645e+08
2.00646e+08
2.00647e+08
2.03497e+08
2.03497e+08
2.03497e+08
2.03498e+08
2.03498e+08
2.03499e+08
2.0636e+08
2.0636e+08
2.0636e+08
2.06361e+08
2.06362e+08
2.06362e+08
2.09234e+08
2.09234e+08
2.09234e+08
2.09235e+08
2.09236e+08
2.09236e+08
2.12119e+08
2.12119e+08
2.1212e+08
2.1212e+08
2.12121e+08
2.12122e+08
2.15015e+08
2.15015e+08
2.15016e+08
2.15016e+08
2.15017e+08
2.15018e+08
2.17922e+08
2.17922e+08
2.17922e+08
2.17923e+08
2.17924e+08
2.17924e+08
2.2084e+08
2.2084e+08
2.2084e+08
2.20841e+08
2.20841e+08
2.20842e+08
2.23768e+08
2.23768e+08
2.23768e+08
2.23769e+08
2.2377e+08
2.2377e+08
2.26707e+08
2.26707e+08
2.26707e+08
2.26708e+08
2.26709e+08
2.26709e+08
2.29657e+08
2.29657e+08
2.29657e+08
2.29657e+08
2.29658e+08
2.29659e+08
2.32617e+08
2.32617e+08
2.32617e+08
2.32618e+08
2.32618e+08
2.32619e+08
2.35587e+08
2.35588e+08
2.35588e+08
2.35588e+08
2.35589e+08
2.3559e+08
2.38569e+08
2.38569e+08
2.38569e+08
2.3857e+08
2.3857e+08
2.38571e+08
2.4156e+08
2.4156e+08
2.41561e+08
2.41561e+08
2.41562e+08
2.41563e+08
2.44562e+08
2.44563e+08
2.44563e+08
2.44563e+08
2.44564e+08
2.44565e+08
2.47575e+08
2.47575e+08
2.47575e+08
2.47576e+08
2.47576e+08
2.47577e+08
2.50598e+08
2.50598e+08
2.50598e+08
2.50598e+08
2.50599e+08
2.506e+08
2.53631e+08
2.53631e+08
2.53631e+08
2.53631e+08
2.53632e+08
2.53633e+08
2.56674e+08
2.56674e+08
2.56674e+08
2.56675e+08
2.56675e+08
2.56676e+08
2.59727e+08
2.59727e+08
2.59728e+08
2.59728e+08
2.59729e+08
2.59729e+08
2.62791e+08
2.62791e+08
2.62791e+08
2.62792e+08
2.62792e+08
2.62793e+08
2.65865e+08
2.65865e+08
2.65865e+08
2.65866e+08
2.65866e+08
2.65867e+08
2.68949e+08
2.68949e+08
2.68949e+08
2.68949e+08
2.6895e+08
2.68951e+08
2.72042e+08
2.72043e+08
2.72043e+08
2.72043e+08
2.72044e+08
2.72045e+08
2.75146e+08
2.75146e+08
2.75147e+08
2.75147e+08
2.75148e+08
2.75148e+08
2.7826e+08
2.7826e+08
2.7826e+08
2.78261e+08
2.78262e+08
2.78262e+08
2.81384e+08
2.81384e+08
2.81384e+08
2.81385e+08
2.81385e+08
2.81386e+08
2.84518e+08
2.84518e+08
2.84518e+08
2.84518e+08
2.84519e+08
2.8452e+08
2.87661e+08
2.87661e+08
2.87661e+08
2.87662e+08
2.87663e+08
2.87663e+08
2.90815e+08
2.90815e+08
2.90815e+08
2.90815e+08
2.90816e+08
2.90817e+08
2.93978e+08
2.93978e+08
2.93978e+08
2.93978e+08
2.93979e+08
2.9398e+08
2.97151e+08
2.97151e+08
2.97151e+08
2.97151e+08
2.97152e+08
2.97153e+08
3.00333e+08
3.00333e+08
3.00333e+08
3.00334e+08
3.00335e+08
3.00335e+08
3.03525e+08
3.03526e+08
3.03526e+08
3.03526e+08
3.03527e+08
3.03527e+08
3.06727e+08
3.06727e+08
3.06728e+08
3.06728e+08
3.06729e+08
3.06729e+08
3.09939e+08
3.09939e+08
3.09939e+08
3.0994e+08
3.0994e+08
3.09941e+08
3.1316e+08
3.1316e+08
3.1316e+08
3.13161e+08
3.13161e+08
3.13162e+08
3.16391e+08
3.16391e+08
3.16391e+08
3.16391e+08
3.16392e+08
3.16393e+08
3.19631e+08
3.19631e+08
3.19631e+08
3.19632e+08
3.19632e+08
3.19633e+08
3.22881e+08
3.22881e+08
3.22881e+08
3.22881e+08
3.22882e+08
3.22882e+08
3.2614e+08
3.2614e+08
3.2614e+08
3.2614e+08
3.26141e+08
3.26142e+08
3.29408e+08
3.29408e+08
3.29408e+08
3.29409e+08
3.29409e+08
3.2941e+08
3.32686e+08
3.32686e+08
3.32686e+08
3.32687e+08
3.32687e+08
3.32688e+08
3.35973e+08
3.35973e+08
3.35973e+08
3.35974e+08
3.35975e+08
3.35975e+08
3.3927e+08
3.3927e+08
3.3927e+08
3.39271e+08
3.39271e+08
3.39272e+08
3.42576e+08
3.42576e+08
3.42576e+08
3.42576e+08
3.42577e+08
3.42578e+08
3.45891e+08
3.45891e+08
3.45891e+08
3.45891e+08
3.45892e+08
3.45893e+08
3.49215e+08
3.49215e+08
3.49215e+08
3.49216e+08
3.49216e+08
3.49217e+08
3.52548e+08
3.52548e+08
3.52548e+08
3.52549e+08
3.52549e+08
3.5255e+08
3.5589e+08
3.5589e+08
3.5589e+08
3.55891e+08
3.55891e+08
3.55892e+08
3.59241e+08
3.59241e+08
3.59241e+08
3.59241e+08
3.59242e+08
3.59242e+08
3.626e+08
3.626e+08
3.626e+08
3.626e+08
3.62601e+08
3.62602e+08
3.65967e+08
3.65967e+08
3.65967e+08
3.65968e+08
3.65969e+08
3.65969e+08
3.69343e+08
3.69343e+08
3.69343e+08
3.69344e+08
3.69344e+08
3.69345e+08
3.72728e+08
3.72728e+08
3.72728e+08
3.72728e+08
3.72729e+08
3.72729e+08
3.76121e+08
3.76121e+08
3.76121e+08
3.76121e+08
3.76122e+08
3.76122e+08
3.79522e+08
3.79522e+08
3.79522e+08
3.79523e+08
3.79523e+08
3.79524e+08
3.82932e+08
3.82932e+08
3.82932e+08
3.82932e+08
3.82933e+08
3.82933e+08
3.8635e+08
3.8635e+08
3.8635e+08
3.8635e+08
3.86351e+08
3.86351e+08
3.89776e+08
3.89776e+08
3.89776e+08
3.89777e+08
3.89777e+08
3.89778e+08
3.93211e+08
3.93211e+08
3.93211e+08
3.93212e+08
3.93212e+08
3.93213e+08
3.96654e+08
3.96654e+08
3.96654e+08
3.96655e+08
3.96655e+08
3.96656e+08
4.00105e+08
4.00105e+08
4.00105e+08
4.00106e+08
4.00106e+08
4.00107e+08
4.03565e+08
4.03565e+08
4.03565e+08
4.03565e+08
4.03566e+08
4.03566e+08
4.07032e+08
4.07032e+08
4.07032e+08
4.07033e+08
4.07033e+08
4.07034e+08
4.10508e+08
4.10508e+08
4.10508e+08
4.10509e+08
4.10509e+08
4.1051e+08
4.13992e+08
4.13992e+08
4.13992e+08
4.13993e+08
4.13993e+08
4.13994e+08
4.17484e+08
4.17484e+08
4.17484e+08
4.17485e+08
4.17485e+08
4.17486e+08
4.20984e+08
4.20984e+08
4.20984e+08
4.20985e+08
4.20985e+08
4.20986e+08
4.24492e+08
4.24492e+08
4.24492e+08
4.24493e+08
4.24493e+08
4.24494e+08
4.28008e+08
4.28008e+08
4.28009e+08
4.28009e+08
4.2801e+08
4.2801e+08
4.31533e+08
4.31533e+08
4.31533e+08
4.31533e+08
4.31534e+08
4.31534e+08
4.35065e+08
4.35065e+08
4.35065e+08
4.35065e+08
4.35066e+08
4.35066e+08
4.38605e+08
4.38605e+08
4.38605e+08
4.38605e+08
4.38606e+08
4.38606e+08
4.42153e+08
4.42153e+08
4.42153e+08
4.42153e+08
4.42154e+08
4.42154e+08
4.45708e+08
4.45709e+08
4.45709e+08
4.45709e+08
4.4571e+08
4.4571e+08
4.49272e+08
4.49272e+08
4.49272e+08
4.49273e+08
4.49273e+08
4.49274e+08
4.52844e+08
4.52844e+08
4.52844e+08
4.52844e+08
4.52845e+08
4.52845e+08
4.56423e+08
4.56423e+08
4.56423e+08
4.56424e+08
4.56424e+08
4.56425e+08
4.6001e+08
4.6001e+08
4.6001e+08
4.60011e+08
4.60011e+08
4.60012e+08
4.63605e+08
4.63605e+08
4.63605e+08
4.63606e+08
4.63606e+08
4.63607e+08
4.67207e+08
4.67208e+08
4.67208e+08
4.67208e+08
4.67209e+08
4.67209e+08
4.70818e+08
4.70818e+08
4.70818e+08
4.70818e+08
4.70819e+08
4.70819e+08
4.74436e+08
4.74436e+08
4.74436e+08
4.74436e+08
4.74437e+08
4.74437e+08
4.78061e+08
4.78061e+08
4.78061e+08
4.78062e+08
4.78062e+08
4.78063e+08
4.81694e+08
4.81695e+08
4.81695e+08
4.81695e+08
4.81696e+08
4.81696e+08
4.85335e+08
4.85335e+08
4.85335e+08
4.85336e+08
4.85336e+08
4.85337e+08
4.88984e+08
4.88984e+08
4.88984e+08
4.88984e+08
4.88985e+08
4.88985e+08
4.92639e+08
4.9264e+08
4.9264e+08
4.9264e+08
4.92641e+08
4.92641e+08
4.96303e+08
4.96303e+08
4.96303e+08
4.96303e+08
4.96304e+08
4.96304e+08
4.99974e+08
4.99974e+08
4.99974e+08
4.99974e+08
4.99975e+08
4.99975e+08
5.03652e+08
5.03652e+08
5.03652e+08
5.03653e+08
5.03653e+08
5.03654e+08
5.07338e+08
5.07338e+08
5.07338e+08
5.07339e+08
5.07339e+08
5.0734e+08
5.11031e+08
5.11031e+08
5.11031e+08
5.11032e+08
5.11032e+08
5.11033e+08
5.14732e+08
5.14732e+08
5.14732e+08
5.14732e+08
5.14733e+08
5.14733e+08
5.1844e+08
5.1844e+08
5.1844e+08
5.1844e+08
5.18441e+08
5.18441e+08
5.22155e+08
5.22155e+08
5.22155e+08
5.22156e+08
5.22156e+08
5.22157e+08
5.25878e+08
5.25878e+08
5.25878e+08
5.25878e+08
5.25879e+08
5.25879e+08
5.29608e+08
5.29608e+08
5.29608e+08
5.29608e+08
5.29609e+08
5.29609e+08
5.33345e+08
5.33345e+08
5.33345e+08
5.33346e+08
5.33346e+08
5.33347e+08
5.3709e+08
5.3709e+08
5.3709e+08
5.3709e+08
5.37091e+08
5.37091e+08
5.40841e+08
5.40841e+08
5.40841e+08
5.40842e+08
5.40842e+08
5.40843e+08
5.446e+08
5.446e+08
5.446e+08
5.44601e+08
5.44601e+08
5.44602e+08
5.48366e+08
5.48366e+08
5.48367e+08
5.48367e+08
5.48367e+08
5.48368e+08
5.5214e+08
5.5214e+08
5.5214e+08
5.5214e+08
5.52141e+08
5.52141e+08
5.5592e+08
5.5592e+08
5.5592e+08
5.55921e+08
5.55921e+08
5.55922e+08
5.59708e+08
5.59708e+08
5.59708e+08
5.59708e+08
5.59709e+08
5.59709e+08
5.63502e+08
5.63502e+08
5.63502e+08
5.63503e+08
5.63503e+08
5.63504e+08
5.67304e+08
5.67304e+08
5.67304e+08
5.67304e+08
5.67305e+08
5.67305e+08
5.71113e+08
5.71113e+08
5.71113e+08
5.71113e+08
5.71114e+08
5.71114e+08
5.74928e+08
5.74928e+08
5.74928e+08
5.74929e+08
5.74929e+08
5.7493e+08
5.78751e+08
5.78751e+08
5.78751e+08
5.78752e+08
5.78752e+08
5.78752e+08
5.82581e+08
5.82581e+08
5.82581e+08
5.82581e+08
5.82582e+08
5.82582e+08
5.86417e+08
5.86417e+08
5.86418e+08
5.86418e+08
5.86418e+08
5.86419e+08
5.90261e+08
5.90261e+08
5.90261e+08
5.90262e+08
5.90262e+08
5.90262e+08
5.94111e+08
5.94112e+08
5.94112e+08
5.94112e+08
5.94112e+08
5.94113e+08
5.97969e+08
5.97969e+08
5.97969e+08
5.97969e+08
5.9797e+08
5.9797e+08
6.01833e+08
6.01833e+08
6.01833e+08
6.01834e+08
6.01834e+08
6.01835e+08
6.05704e+08
6.05704e+08
6.05704e+08
6.05705e+08
6.05705e+08
6.05706e+08
6.09582e+08
6.09582e+08
6.09582e+08
6.09583e+08
6.09583e+08
6.09584e+08
6.13467e+08
6.13467e+08
6.13467e+08
6.13467e+08
6.13468e+08
6.13468e+08
6.17358e+08
6.17358e+08
6.17359e+08
6.17359e+08
6.17359e+08
6.1736e+08
6.21257e+08
6.21257e+08
6.21257e+08
6.21257e+08
6.21258e+08
6.21258e+08
6.25162e+08
6.25162e+08
6.25162e+08
6.25162e+08
6.25163e+08
6.25163e+08
6.29073e+08
6.29073e+08
6.29073e+08
6.29074e+08
6.29074e+08
6.29075e+08
6.32992e+08
6.32992e+08
6.32992e+08
6.32992e+08
6.32993e+08
6.32993e+08
6.36917e+08
6.36917e+08
6.36917e+08
6.36917e+08
6.36918e+08
6.36918e+08
6.40849e+08
6.40849e+08
6.40849e+08
6.40849e+08
6.4085e+08
6.4085e+08
6.44787e+08
6.44787e+08
6.44787e+08
6.44787e+08
6.44788e+08
6.44788e+08
6.48732e+08
6.48732e+08
6.48732e+08
6.48732e+08
6.48733e+08
6.48733e+08
6.52683e+08
6.52683e+08
6.52684e+08
6.52684e+08
6.52684e+08
6.52685e+08
6.56641e+08
6.56642e+08
6.56642e+08
6.56642e+08
6.56642e+08
6.56643e+08
6.60606e+08
6.60606e+08
6.60606e+08
6.60607e+08
6.60607e+08
6.60607e+08
6.64577e+08
6.64577e+08
6.64577e+08
6.64577e+08
6.64578e+08
6.64578e+08
6.68554e+08
6.68554e+08
6.68554e+08
6.68555e+08
6.68555e+08
6.68555e+08
6.72538e+08
6.72538e+08
6.72538e+08
6.72538e+08
6.72539e+08
6.72539e+08
6.76528e+08
6.76528e+08
6.76528e+08
6.76528e+08
6.76529e+08
6.76529e+08
6.80524e+08
6.80524e+08
6.80524e+08
6.80524e+08
6.80525e+08
6.80525e+08
6.84526e+08
6.84526e+08
6.84527e+08
6.84527e+08
6.84527e+08
6.84528e+08
6.88535e+08
6.88535e+08
6.88535e+08
6.88536e+08
6.88536e+08
6.88537e+08
6.9255e+08
6.9255e+08
6.92551e+08
6.92551e+08
6.92551e+08
6.92552e+08
6.96572e+08
6.96572e+08
6.96572e+08
6.96572e+08
6.96573e+08
6.96573e+08
7.00599e+08
7.00599e+08
7.00599e+08
7.006e+08
7.006e+08
7.00601e+08
7.04633e+08
7.04633e+08
7.04633e+08
7.04634e+08
7.04634e+08
7.04634e+08
7.08673e+08
7.08673e+08
7.08673e+08
7.08674e+08
7.08674e+08
7.08674e+08
7.12719e+08
7.12719e+08
7.12719e+08
7.1272e+08
7.1272e+08
7.12721e+08
7.16772e+08
7.16772e+08
7.16772e+08
7.16772e+08
7.16773e+08
7.16773e+08
7.2083e+08
7.2083e+08
7.2083e+08
7.2083e+08
7.20831e+08
7.20831e+08
7.24895e+08
7.24895e+08
7.24895e+08
7.24895e+08
7.24895e+08
7.24896e+08
7.28965e+08
7.28965e+08
7.28965e+08
7.28966e+08
7.28966e+08
7.28966e+08
7.33042e+08
7.33042e+08
7.33042e+08
7.33042e+08
7.33043e+08
7.33043e+08
7.37125e+08
7.37125e+08
7.37125e+08
7.37125e+08
7.37125e+08
7.37126e+08
7.41213e+08
7.41213e+08
7.41213e+08
7.41214e+08
7.41214e+08
7.41215e+08
7.45308e+08
7.45308e+08
7.45308e+08
7.45309e+08
7.45309e+08
7.45309e+08
7.49409e+08
7.49409e+08
7.49409e+08
7.49409e+08
7.4941e+08
7.4941e+08
7.53516e+08
7.53516e+08
7.53516e+08
7.53516e+08
7.53517e+08
7.53517e+08
7.57628e+08
7.57628e+08
7.57628e+08
7.57629e+08
7.57629e+08
7.5763e+08
7.61747e+08
7.61747e+08
7.61747e+08
7.61747e+08
7.61748e+08
7.61748e+08
7.65872e+08
7.65872e+08
7.65872e+08
7.65872e+08
7.65872e+08
7.65873e+08
7.70002e+08
7.70002e+08
7.70002e+08
7.70002e+08
7.70003e+08
7.70003e+08
7.74138e+08
7.74138e+08
7.74138e+08
7.74139e+08
7.74139e+08
7.7414e+08
7.7828e+08
7.78281e+08
7.78281e+08
7.78281e+08
7.78281e+08
7.78282e+08
7.82429e+08
7.82429e+08
7.82429e+08
7.82429e+08
7.82429e+08
7.8243e+08
7.86582e+08
7.86582e+08
7.86583e+08
7.86583e+08
7.86583e+08
7.86584e+08
7.90742e+08
7.90742e+08
7.90742e+08
7.90743e+08
7.90743e+08
7.90743e+08
7.94907e+08
7.94908e+08
7.94908e+08
7.94908e+08
7.94908e+08
7.94909e+08
7.99079e+08
7.99079e+08
7.99079e+08
7.99079e+08
7.9908e+08
7.9908e+08
8.03256e+08
8.03256e+08
8.03256e+08
8.03256e+08
8.03257e+08
8.03257e+08
8.07438e+08
8.07438e+08
8.07439e+08
8.07439e+08
8.07439e+08
8.0744e+08
8.11627e+08
8.11627e+08
8.11627e+08
8.11627e+08
8.11628e+08
8.11628e+08
8.15821e+08
8.15821e+08
8.15821e+08
8.15821e+08
8.15822e+08
8.15822e+08
8.20021e+08
8.20021e+08
8.20021e+08
8.20021e+08
8.20022e+08
8.20022e+08
8.24226e+08
8.24226e+08
8.24226e+08
8.24227e+08
8.24227e+08
8.24227e+08
8.28437e+08
8.28437e+08
8.28437e+08
8.28438e+08
8.28438e+08
8.28438e+08
8.32654e+08
8.32654e+08
8.32654e+08
8.32654e+08
8.32655e+08
8.32655e+08
8.36876e+08
8.36876e+08
8.36876e+08
8.36877e+08
8.36877e+08
8.36878e+08
8.41104e+08
8.41104e+08
8.41104e+08
8.41105e+08
8.41105e+08
8.41105e+08
8.45338e+08
8.45338e+08
8.45338e+08
8.45338e+08
8.45339e+08
8.45339e+08
8.49577e+08
8.49577e+08
8.49577e+08
8.49577e+08
8.49578e+08
8.49578e+08
8.53821e+08
8.53821e+08
8.53821e+08
8.53822e+08
8.53822e+08
8.53823e+08
8.58071e+08
8.58072e+08
8.58072e+08
8.58072e+08
8.58072e+08
8.58073e+08
8.62327e+08
8.62327e+08
8.62327e+08
8.62328e+08
8.62328e+08
8.62328e+08
8.66588e+08
8.66588e+08
8.66588e+08
8.66589e+08
8.66589e+08
8.66589e+08
8.70855e+08
8.70855e+08
8.70855e+08
8.70855e+08
8.70856e+08
8.70856e+08
8.75127e+08
8.75127e+08
8.75127e+08
8.75127e+08
8.75128e+08
8.75128e+08
8.79404e+08
8.79404e+08
8.79404e+08
8.79405e+08
8.79405e+08
8.79405e+08
8.83687e+08
8.83687e+08
8.83687e+08
8.83688e+08
8.83688e+08
8.83688e+08
8.87975e+08
8.87975e+08
8.87976e+08
8.87976e+08
8.87976e+08
8.87977e+08
8.92269e+08
8.92269e+08
8.92269e+08
8.92269e+08
8.9227e+08
8.9227e+08
8.96568e+08
8.96568e+08
8.96568e+08
8.96569e+08
8.96569e+08
8.96569e+08
9.00872e+08
9.00873e+08
9.00873e+08
9.00873e+08
9.00873e+08
9.00874e+08
9.05182e+08
9.05182e+08
9.05182e+08
9.05183e+08
9.05183e+08
9.05183e+08
9.09497e+08
9.09497e+08
9.09497e+08
9.09498e+08
9.09498e+08
9.09498e+08
9.13818e+08
9.13818e+08
9.13818e+08
9.13818e+08
9.13818e+08
9.13819e+08
9.18143e+08
9.18143e+08
9.18143e+08
9.18144e+08
9.18144e+08
9.18144e+08
9.22474e+08
9.22474e+08
9.22474e+08
9.22475e+08
9.22475e+08
9.22475e+08
9.2681e+08
9.2681e+08
9.2681e+08
9.26811e+08
9.26811e+08
9.26811e+08
9.31152e+08
9.31152e+08
9.31152e+08
9.31152e+08
9.31153e+08
9.31153e+08
9.35498e+08
9.35498e+08
9.35499e+08
9.35499e+08
9.35499e+08
9.355e+08
9.3985e+08
9.3985e+08
9.3985e+08
9.39851e+08
9.39851e+08
9.39851e+08
9.44207e+08
9.44207e+08
9.44207e+08
9.44208e+08
9.44208e+08
9.44208e+08
9.48569e+08
9.48569e+08
9.4857e+08
9.4857e+08
9.4857e+08
9.48571e+08
9.52937e+08
9.52937e+08
9.52937e+08
9.52937e+08
9.52938e+08
9.52938e+08
9.57309e+08
9.57309e+08
9.57309e+08
9.5731e+08
9.5731e+08
9.5731e+08
9.61687e+08
9.61687e+08
9.61687e+08
9.61687e+08
9.61688e+08
9.61688e+08
9.6607e+08
9.6607e+08
9.6607e+08
9.6607e+08
9.6607e+08
9.66071e+08
9.70457e+08
9.70457e+08
9.70458e+08
9.70458e+08
9.70458e+08
9.70459e+08
9.7485e+08
9.7485e+08
9.74851e+08
9.74851e+08
9.74851e+08
9.74851e+08
9.79248e+08
9.79248e+08
9.79248e+08
9.79249e+08
9.79249e+08
9.79249e+08
9.83651e+08
9.83651e+08
9.83652e+08
9.83652e+08
9.83652e+08
9.83652e+08
9.88059e+08
9.88059e+08
9.8806e+08
9.8806e+08
9.8806e+08
9.88061e+08
9.92472e+08
9.92473e+08
9.92473e+08
9.92473e+08
9.92473e+08
9.92474e+08
9.96891e+08
9.96891e+08
9.96891e+08
9.96891e+08
9.96891e+08
9.96892e+08
1.00131e+09
1.00131e+09
1.00131e+09
1.00131e+09
1.00131e+09
1.00131e+09
1.00574e+09
1.00574e+09
1.00574e+09
1.00574e+09
1.00574e+09
1.00574e+09
1.01017e+09
1.01017e+09
1.01017e+09
1.01018e+09
1.01018e+09
1.01018e+09
1.01461e+09
1.01461e+09
1.01461e+09
1.01461e+09
1.01461e+09
1.01461e+09
1.01906e+09
1.01906e+09
1.01906e+09
1.01906e+09
1.01906e+09
1.01906e+09
1.0235e+09
1.0235e+09
1.0235e+09
1.0235e+09
1.0235e+09
1.0235e+09
1.02796e+09
1.02796e+09
1.02796e+09
1.02796e+09
1.02796e+09
1.02796e+09
1.03241e+09
1.03241e+09
1.03241e+09
1.03241e+09
1.03241e+09
1.03241e+09
1.03688e+09
1.03688e+09
1.03688e+09
1.03688e+09
1.03688e+09
1.03688e+09
1.04134e+09
1.04134e+09
1.04134e+09
1.04134e+09
1.04134e+09
1.04134e+09
1.04582e+09
1.04582e+09
1.04582e+09
1.04582e+09
1.04582e+09
1.04582e+09
1.05029e+09
1.05029e+09
1.05029e+09
1.05029e+09
1.05029e+09
1.05029e+09
1.05477e+09
1.05477e+09
1.05477e+09
1.05477e+09
1.05477e+09
1.05478e+09
1.05926e+09
1.05926e+09
1.05926e+09
1.05926e+09
1.05926e+09
1.05926e+09
1.06375e+09
1.06375e+09
1.06375e+09
1.06375e+09
1.06375e+09
1.06375e+09
1.06825e+09
1.06825e+09
1.06825e+09
1.06825e+09
1.06825e+09
1.06825e+09
1.07275e+09
1.07275e+09
1.07275e+09
1.07275e+09
1.07275e+09
1.07275e+09
1.07725e+09
1.07725e+09
1.07725e+09
1.07725e+09
1.07726e+09
1.07726e+09
1.08176e+09
1.08176e+09
1.08176e+09
1.08177e+09
1.08177e+09
1.08177e+09
1.08628e+09
1.08628e+09
1.08628e+09
1.08628e+09
1.08628e+09
1.08628e+09
1.0908e+09
1.0908e+09
1.0908e+09
1.0908e+09
1.0908e+09
1.0908e+09
1.09532e+09
1.09532e+09
1.09532e+09
1.09532e+09
1.09532e+09
1.09533e+09
1.09985e+09
1.09985e+09
1.09985e+09
1.09985e+09
1.09985e+09
1.09985e+09
1.10439e+09
1.10439e+09
1.10439e+09
1.10439e+09
1.10439e+09
1.10439e+09
1.10893e+09
1.10893e+09
1.10893e+09
1.10893e+09
1.10893e+09
1.10893e+09
1.11347e+09
1.11347e+09
1.11347e+09
1.11347e+09
1.11347e+09
1.11347e+09
1.11802e+09
1.11802e+09
1.11802e+09
1.11802e+09
1.11802e+09
1.11802e+09
1.12257e+09
1.12257e+09
1.12257e+09
1.12257e+09
1.12257e+09
1.12257e+09
1.12712e+09
1.12712e+09
1.12712e+09
1.12713e+09
1.12713e+09
1.12713e+09
1.13169e+09
1.13169e+09
1.13169e+09
1.13169e+09
1.13169e+09
1.13169e+09
1.13625e+09
1.13625e+09
1.13625e+09
1.13625e+09
1.13625e+09
1.13625e+09
1.14082e+09
1.14082e+09
1.14082e+09
1.14082e+09
1.14082e+09
1.14082e+09
1.1454e+09
1.1454e+09
1.1454e+09
1.1454e+09
1.1454e+09
1.1454e+09
1.14998e+09
1.14998e+09
1.14998e+09
1.14998e+09
1.14998e+09
1.14998e+09
1.15456e+09
1.15456e+09
1.15456e+09
1.15456e+09
1.15456e+09
1.15456e+09
1.15915e+09
1.15915e+09
1.15915e+09
1.15915e+09
1.15915e+09
1.15915e+09
1.16374e+09
1.16374e+09
1.16374e+09
1.16374e+09
1.16374e+09
1.16374e+09
1.16834e+09
1.16834e+09
1.16834e+09
1.16834e+09
1.16834e+09
1.16834e+09
1.17294e+09
1.17294e+09
1.17294e+09
1.17294e+09
1.17294e+09
1.17294e+09
1.17755e+09
1.17755e+09
1.17755e+09
1.17755e+09
1.17755e+09
1.17755e+09
1.18216e+09
1.18216e+09
1.18216e+09
1.18216e+09
1.18216e+09
1.18216e+09
1.18677e+09
1.18677e+09
1.18678e+09
1.18678e+09
1.18678e+09
1.18678e+09
1.19139e+09
1.19139e+09
1.19139e+09
1.19139e+09
1.1914e+09
1.1914e+09
1.19602e+09
1.19602e+09
1.19602e+09
1.19602e+09
1.19602e+09
1.19602e+09
1.20065e+09
1.20065e+09
1.20065e+09
1.20065e+09
1.20065e+09
1.20065e+09
1.20528e+09
1.20528e+09
1.20528e+09
1.20528e+09
1.20528e+09
1.20528e+09
1.20992e+09
1.20992e+09
1.20992e+09
1.20992e+09
1.20992e+09
1.20992e+09
1.21456e+09
1.21456e+09
1.21456e+09
1.21456e+09
1.21456e+09
1.21456e+09
1.21921e+09
1.21921e+09
1.21921e+09
1.21921e+09
1.21921e+09
1.21921e+09
1.22386e+09
1.22386e+09
1.22386e+09
1.22386e+09
1.22386e+09
1.22386e+09
1.22851e+09
1.22851e+09
1.22851e+09
1.22851e+09
1.22851e+09
1.22851e+09
1.23317e+09
1.23317e+09
1.23317e+09
1.23317e+09
1.23317e+09
1.23317e+09
1.23784e+09
1.23784e+09
1.23784e+09
1.23784e+09
1.23784e+09
1.23784e+09
1.24251e+09
1.24251e+09
1.24251e+09
1.24251e+09
1.24251e+09
1.24251e+09
1.24718e+09
1.24718e+09
1.24718e+09
1.24718e+09
1.24718e+09
1.24718e+09
1.25186e+09
1.25186e+09
1.25186e+09
1.25186e+09
1.25186e+09
1.25186e+09
1.25654e+09
1.25654e+09
1.25654e+09
1.25654e+09
1.25654e+09
1.25654e+09
1.26123e+09
1.26123e+09
1.26123e+09
1.26123e+09
1.26123e+09
1.26123e+09
1.26592e+09
1.26592e+09
1.26592e+09
1.26592e+09
1.26592e+09
1.26592e+09
1.27061e+09
1.27061e+09
1.27061e+09
1.27062e+09
1.27062e+09
1.27062e+09
1.27532e+09
1.27532e+09
1.27532e+09
1.27532e+09
1.27532e+09
1.27532e+09
1.28002e+09
1.28002e+09
1.28002e+09
1.28002e+09
1.28002e+09
1.28002e+09
1.28473e+09
1.28473e+09
1.28473e+09
1.28473e+09
1.28473e+09
1.28473e+09
1.28944e+09
1.28944e+09
1.28944e+09
1.28944e+09
1.28944e+09
1.28944e+09
1.29416e+09
1.29416e+09
1.29416e+09
1.29416e+09
1.29416e+09
1.29416e+09
1.29888e+09
1.29888e+09
1.29888e+09
1.29888e+09
1.29888e+09
1.29888e+09
1.30361e+09
1.30361e+09
1.30361e+09
1.30361e+09
1.30361e+09
1.30361e+09
1.30833e+09
1.30833e+09
1.30833e+09
1.30833e+09
1.30833e+09
1.30833e+09
1.31306e+09
1.31306e+09
1.31306e+09
1.31306e+09
1.31306e+09
1.31307e+09
1.3178e+09
1.3178e+09
1.3178e+09
1.3178e+09
1.3178e+09
1.3178e+09
1.32254e+09
1.32254e+09
1.32254e+09
1.32254e+09
1.32254e+09
1.32254e+09
1.32728e+09
1.32728e+09
1.32728e+09
1.32728e+09
1.32728e+09
1.32728e+09
1.33202e+09
1.33202e+09
1.33202e+09
1.33202e+09
1.33202e+09
1.33202e+09
1.33677e+09
1.33677e+09
1.33677e+09
1.33677e+09
1.33677e+09
1.33677e+09
1.34152e+09
1.34152e+09
1.34152e+09
1.34152e+09
1.34152e+09
1.34152e+09
1.34628e+09
1.34628e+09
1.34628e+09
1.34628e+09
1.34628e+09
1.34628e+09
1.35104e+09
1.35104e+09
1.35104e+09
1.35104e+09
1.35104e+09
1.35104e+09
1.3558e+09
1.3558e+09
1.3558e+09
1.3558e+09
1.3558e+09
1.3558e+09
1.36056e+09
1.36056e+09
1.36056e+09
1.36057e+09
1.36057e+09
1.36057e+09
1.36533e+09
1.36533e+09
1.36533e+09
1.36533e+09
1.36533e+09
1.36533e+09
1.37011e+09
1.37011e+09
1.37011e+09
1.37011e+09
1.37011e+09
1.37011e+09
1.37488e+09
1.37488e+09
1.37488e+09
1.37488e+09
1.37488e+09
1.37488e+09
1.37966e+09
1.37966e+09
1.37966e+09
1.37966e+09
1.37966e+09
1.37966e+09
1.38444e+09
1.38444e+09
1.38444e+09
1.38444e+09
1.38444e+09
1.38444e+09
1.38923e+09
1.38923e+09
1.38923e+09
1.38923e+09
1.38923e+09
1.38923e+09
1.39402e+09
1.39402e+09
1.39402e+09
1.39402e+09
1.39402e+09
1.39402e+09
1.39881e+09
1.39881e+09
1.39881e+09
1.39881e+09
1.39881e+09
1.39881e+09
1.4036e+09
1.4036e+09
1.4036e+09
1.4036e+09
1.4036e+09
1.4036e+09
1.4084e+09
1.4084e+09
1.4084e+09
1.4084e+09
1.4084e+09
1.4084e+09
1.4132e+09
1.4132e+09
1.4132e+09
1.4132e+09
1.4132e+09
1.4132e+09
1.41801e+09
1.41801e+09
1.41801e+09
1.41801e+09
1.41801e+09
1.41801e+09
1.42282e+09
1.42282e+09
1.42282e+09
1.42282e+09
1.42282e+09
1.42282e+09
1.42763e+09
1.42763e+09
1.42763e+09
1.42763e+09
1.42763e+09
1.42763e+09
1.43244e+09
1.43244e+09
1.43244e+09
1.43244e+09
1.43244e+09
1.43244e+09
1.43726e+09
1.43726e+09
1.43726e+09
1.43726e+09
1.43726e+09
1.43726e+09
1.44208e+09
1.44208e+09
1.44208e+09
1.44208e+09
1.44208e+09
1.44208e+09