/*--------------------------------*- C++ -*----------------------------------*\
| =========                 |                                                 |
| \\      /  F ield         | OpenFOAM: The Open Source CFD Toolbox           |
|  \\    /   O peration     | Version:  2206                                  |
|   \\  /    A nd           | Website:  www.openfoam.com                      |
|    \\/     M anipulation  |                                                 |
\*---------------------------------------------------------------------------*/
FoamFile
{
    version     2.0;
    format      ascii;
    arch        "LSB;label=32;scalar=64";
    class       surfaceScalarField;
    location    "5";
    object      phi;
}
// * * * * * * * * * * * * * * * * * * * * * * * * * * * * * * * * * * * * * //

dimensions      [0 3 -1 0 0 0 0];

oriented        oriented;

internalField   nonuniform List<scalar> 
65994
(
1.69785e-13
-1.69502e-13
1.8574e-13
-1.59527e-14
-3.41723e-14
2.19916e-13
-2.50531e-13
2.16366e-13
-2.26112e-13
-2.44138e-14
-2.26112e-13
5.79543e-13
-7.49057e-13
6.51978e-13
-8.84054e-14
-1.02196e-13
9.74089e-13
-8.49816e-13
9.63984e-13
-7.6275e-13
-1.11481e-13
-9.88861e-13
9.98824e-13
-1.74785e-12
1.12319e-12
-2.12731e-13
-1.7441e-13
2.2717e-12
-1.46313e-12
2.25272e-12
-1.31835e-12
-2.5625e-13
-2.30721e-12
1.35879e-12
-3.10665e-12
1.53553e-12
-3.89485e-13
-2.21711e-13
4.02894e-12
-1.97063e-12
4.00164e-12
-1.78997e-12
-4.36905e-13
-4.09718e-12
1.63163e-12
-4.73824e-12
1.84946e-12
-6.07272e-13
-2.69231e-13
6.14766e-12
-2.38253e-12
6.11496e-12
-2.16742e-12
-6.51997e-13
-6.26459e-12
1.87147e-12
-6.60972e-12
2.127e-12
-8.62815e-13
-3.10861e-13
8.58551e-12
-2.74607e-12
8.55015e-12
-2.50574e-12
-8.92326e-13
-8.77034e-12
2.05163e-12
-8.66135e-12
2.33546e-12
-1.14664e-12
-3.49708e-13
1.12707e-11
-3.03439e-12
1.12348e-11
-2.77651e-12
-1.1502e-12
-1.15468e-11
2.17227e-12
-1.08336e-11
2.47556e-12
-1.44995e-12
-3.84873e-13
1.41311e-11
-3.24522e-12
1.40952e-11
-2.97577e-12
-1.41965e-12
-1.45226e-11
2.24424e-12
-1.30778e-11
2.56037e-12
-1.76604e-12
-4.18896e-13
1.71104e-11
-3.397e-12
1.70733e-11
-3.11735e-12
-1.6993e-12
-1.764e-11
2.30067e-12
-1.53785e-11
2.63214e-12
-2.09752e-12
-4.41213e-13
2.01837e-11
-3.51638e-12
2.01485e-11
-3.23101e-12
-1.98468e-12
-2.0871e-11
2.35413e-12
-1.77326e-11
2.6996e-12
-2.44297e-12
-4.60696e-13
2.3344e-11
-3.62548e-12
2.33133e-11
-3.33648e-12
-2.27367e-12
-2.42075e-11
2.39439e-12
-2.01271e-11
2.74919e-12
-2.7978e-12
-4.84487e-13
2.65777e-11
-3.72324e-12
2.6552e-11
-3.42975e-12
-2.56717e-12
-2.76372e-11
2.42154e-12
-2.25486e-11
2.78505e-12
-3.16129e-12
-5.06216e-13
2.9869e-11
-3.8039e-12
2.98497e-11
-3.50746e-12
-2.8636e-12
-3.11447e-11
2.43781e-12
-2.49864e-11
2.80776e-12
-3.53127e-12
-5.27527e-13
3.32042e-11
-3.86911e-12
3.31913e-11
-3.57091e-12
-3.16182e-12
-3.47156e-11
2.42998e-12
-2.74164e-11
2.78715e-12
-3.88846e-12
-5.82899e-13
3.65743e-11
-3.93444e-12
3.65428e-11
-3.63041e-12
-3.46585e-12
-3.8346e-11
2.40098e-12
-2.98173e-11
2.72378e-12
-4.2112e-12
-6.81954e-13
3.99802e-11
-4.01619e-12
3.98772e-11
-3.69885e-12
-3.78306e-12
-4.20448e-11
2.38052e-12
-3.21979e-11
2.67978e-12
-4.51052e-12
-7.62073e-13
4.34219e-11
-4.09604e-12
4.3211e-11
-3.76464e-12
-4.11458e-12
-4.58095e-11
2.36932e-12
-3.45672e-11
2.65945e-12
-4.80064e-12
-8.10549e-13
4.68919e-11
-4.1581e-12
4.65585e-11
-3.817e-12
-4.45569e-12
-4.96265e-11
2.35578e-12
-3.6923e-11
2.63811e-12
-5.08294e-12
-8.53368e-13
5.03834e-11
-4.20905e-12
4.99142e-11
-3.86151e-12
-4.80321e-12
-5.3488e-11
2.34097e-12
-3.9264e-11
2.61606e-12
-5.35804e-12
-8.93954e-13
5.38934e-11
-4.25563e-12
5.32759e-11
-3.90218e-12
-5.15665e-12
-5.73902e-11
2.32447e-12
-4.15884e-11
2.59198e-12
-5.62553e-12
-9.3421e-13
5.74196e-11
-4.29982e-12
5.66415e-11
-3.94032e-12
-5.51614e-12
-6.13305e-11
2.30693e-12
-4.38954e-11
2.5671e-12
-5.88571e-12
-9.72915e-13
6.09596e-11
-4.3408e-12
6.00094e-11
-3.97561e-12
-5.88134e-12
-6.53061e-11
2.2881e-12
-4.61834e-11
2.54074e-12
-6.13835e-12
-1.0112e-12
6.45115e-11
-4.3798e-12
6.3378e-11
-4.00875e-12
-6.25238e-12
-6.93149e-11
2.26852e-12
-4.8452e-11
2.51375e-12
-6.38359e-12
-1.04855e-12
6.80738e-11
-4.41678e-12
6.67462e-11
-4.0399e-12
-6.62926e-12
-7.33548e-11
2.24837e-12
-5.07003e-11
2.48617e-12
-6.62137e-12
-1.08538e-12
7.16454e-11
-4.45249e-12
7.01134e-11
-4.06958e-12
-7.01217e-12
-7.74243e-11
2.22816e-12
-5.29285e-11
2.45891e-12
-6.85212e-12
-1.12082e-12
7.52251e-11
-4.4864e-12
7.34789e-11
-4.09761e-12
-7.40096e-12
-8.15219e-11
2.20772e-12
-5.51362e-11
2.43148e-12
-7.07588e-12
-1.15553e-12
7.88121e-11
-4.51911e-12
7.68425e-11
-4.12438e-12
-7.79568e-12
-8.56463e-11
2.18715e-12
-5.73234e-11
2.40416e-12
-7.2929e-12
-1.18906e-12
8.24053e-11
-4.55013e-12
8.02036e-11
-4.14967e-12
-8.19614e-12
-8.9796e-11
2.16585e-12
-5.94892e-11
2.37593e-12
-7.50297e-12
-1.22177e-12
8.60031e-11
-4.57906e-12
8.35609e-11
-4.17312e-12
-8.60208e-12
-9.39691e-11
2.14259e-12
-6.16318e-11
2.34539e-12
-7.70579e-12
-1.25259e-12
8.9601e-11
-4.60276e-12
8.6911e-11
-4.1923e-12
-9.01255e-12
-9.81614e-11
2.11495e-12
-6.37468e-11
2.30966e-12
-7.9005e-12
-1.28137e-12
9.3192e-11
-4.61795e-12
9.02476e-11
-4.20399e-12
-9.4265e-12
-1.02365e-10
2.08262e-12
-6.58294e-11
2.26852e-12
-8.0864e-12
-1.30945e-12
9.677e-11
-4.62575e-12
9.35639e-11
-4.2085e-12
-9.84375e-12
-1.06574e-10
2.04984e-12
-6.78792e-11
2.22691e-12
-8.26346e-12
-1.33949e-12
1.00336e-10
-4.63559e-12
9.686e-11
-4.21274e-12
-1.02666e-11
-1.10787e-10
2.02432e-12
-6.99035e-11
2.19568e-12
-8.43482e-12
-1.36673e-12
1.03899e-10
-4.6516e-12
1.00145e-10
-4.22132e-12
-1.06969e-11
-1.15008e-10
2.00815e-12
-7.19117e-11
2.17714e-12
-8.6038e-12
-1.38936e-12
1.07465e-10
-4.67337e-12
1.03429e-10
-4.23528e-12
-1.1135e-11
-1.19243e-10
1.99777e-12
-7.39095e-11
2.16474e-12
-8.77077e-12
-1.41136e-12
1.11041e-10
-4.70093e-12
1.06718e-10
-4.25528e-12
-1.15806e-11
-1.23499e-10
1.98821e-12
-7.58977e-11
2.15203e-12
-8.93458e-12
-1.43292e-12
1.14626e-10
-4.72773e-12
1.10013e-10
-4.27684e-12
-1.20315e-11
-1.27775e-10
1.97528e-12
-7.7873e-11
2.13491e-12
-9.09421e-12
-1.4545e-12
1.18216e-10
-4.75003e-12
1.13309e-10
-4.29526e-12
-1.24863e-11
-1.32071e-10
1.95961e-12
-7.98326e-11
2.11484e-12
-9.24945e-12
-1.47754e-12
1.21808e-10
-4.77173e-12
1.16603e-10
-4.31191e-12
-1.29461e-11
-1.36383e-10
1.94396e-12
-8.17765e-11
2.09522e-12
-9.40071e-12
-1.50042e-12
1.25404e-10
-4.79361e-12
1.19896e-10
-4.32817e-12
-1.34116e-11
-1.40711e-10
1.92881e-12
-8.37053e-11
2.07631e-12
-9.5482e-12
-1.52294e-12
1.29003e-10
-4.81566e-12
1.23189e-10
-4.34436e-12
-1.38829e-11
-1.45055e-10
1.91429e-12
-8.56196e-11
2.05835e-12
-9.69227e-12
-1.54459e-12
1.32606e-10
-4.83729e-12
1.26482e-10
-4.36021e-12
-1.436e-11
-1.49415e-10
1.90021e-12
-8.75198e-11
2.04098e-12
-9.83303e-12
-1.56577e-12
1.36213e-10
-4.85875e-12
1.29775e-10
-4.37586e-12
-1.48428e-11
-1.53791e-10
1.88657e-12
-8.94064e-11
2.02423e-12
-9.9707e-12
-1.58631e-12
1.39823e-10
-4.8798e-12
1.33068e-10
-4.39116e-12
-1.53315e-11
-1.58182e-10
1.87314e-12
-9.12796e-11
2.00774e-12
-1.01053e-11
-1.60645e-12
1.43437e-10
-4.90052e-12
1.36362e-10
-4.40609e-12
-1.58259e-11
-1.62588e-10
1.85968e-12
-9.31392e-11
1.99115e-12
-1.02368e-11
-1.62592e-12
1.47055e-10
-4.91994e-12
1.39656e-10
-4.42011e-12
-1.63258e-11
-1.67008e-10
1.84463e-12
-9.49839e-11
1.97216e-12
-1.03643e-11
-1.64512e-12
1.50672e-10
-4.93584e-12
1.42947e-10
-4.43199e-12
-1.68296e-11
-1.7144e-10
1.82861e-12
-9.68125e-11
1.95408e-12
-1.04898e-11
-1.65809e-12
1.54284e-10
-4.94086e-12
1.4623e-10
-4.43797e-12
-1.73325e-11
-1.75878e-10
1.82428e-12
-9.86368e-11
1.96237e-12
-1.06279e-11
-1.64584e-12
1.57892e-10
-4.9307e-12
1.49515e-10
-4.43881e-12
-1.78244e-11
-1.80317e-10
1.83845e-12
-1.00475e-10
2.00557e-12
-1.0795e-11
-1.61426e-12
1.61512e-10
-4.92641e-12
1.52827e-10
-4.45173e-12
-1.82991e-11
-1.84769e-10
1.84786e-12
-1.02323e-10
2.03387e-12
-1.0981e-11
-1.60607e-12
1.65152e-10
-4.94337e-12
1.56164e-10
-4.4801e-12
-1.87623e-11
-1.89249e-10
1.84378e-12
-1.04167e-10
2.03246e-12
-1.11697e-11
-1.6197e-12
1.68804e-10
-4.96291e-12
1.59507e-10
-4.50337e-12
-1.92219e-11
-1.93752e-10
1.83794e-12
-1.06005e-10
2.02839e-12
-1.13601e-11
-1.63027e-12
1.72463e-10
-4.97749e-12
1.62854e-10
-4.51859e-12
-1.96808e-11
-1.98271e-10
1.83156e-12
-1.07836e-10
2.02442e-12
-1.1553e-11
-1.63889e-12
1.76126e-10
-4.99126e-12
1.66207e-10
-4.53223e-12
-2.01398e-11
-2.02803e-10
1.82368e-12
-1.0966e-10
2.0189e-12
-1.17482e-11
-1.64408e-12
1.79789e-10
-4.99891e-12
1.69562e-10
-4.54214e-12
-2.05966e-11
-2.07345e-10
1.80851e-12
-1.11469e-10
2.0079e-12
-1.19476e-11
-1.63326e-12
1.8343e-10
-4.98412e-12
1.72912e-10
-4.53949e-12
-2.10412e-11
-2.11885e-10
1.84079e-12
-1.13309e-10
2.05842e-12
-1.21652e-11
-1.51036e-12
1.86999e-10
-4.87678e-12
1.76279e-10
-4.49524e-12
-2.14227e-11
-2.1638e-10
1.90217e-12
-1.15211e-10
2.14896e-12
-1.2412e-11
-1.38236e-12
1.9053e-10
-4.78498e-12
1.79681e-10
-4.46279e-12
-2.17449e-11
-2.20843e-10
1.92075e-12
-1.17132e-10
2.18536e-12
-1.26766e-11
-1.36262e-12
1.94078e-10
-4.78555e-12
1.83104e-10
-4.47265e-12
-2.20578e-11
-2.25316e-10
1.92298e-12
-1.19055e-10
2.19383e-12
-1.29475e-11
-1.35716e-12
1.97629e-10
-4.78967e-12
1.86537e-10
-4.48224e-12
-2.23653e-11
-2.29798e-10
1.925e-12
-1.2098e-10
2.20183e-12
-1.32243e-11
-1.35491e-12
2.01186e-10
-4.79846e-12
1.8998e-10
-4.49424e-12
-2.26695e-11
-2.34292e-10
1.92676e-12
-1.22907e-10
2.20938e-12
-1.35069e-11
-1.35271e-12
2.04748e-10
-4.80693e-12
1.93435e-10
-4.50598e-12
-2.29704e-11
-2.38798e-10
1.92887e-12
-1.24836e-10
2.21738e-12
-1.37954e-11
-1.35057e-12
2.08316e-10
-4.81586e-12
1.969e-10
-4.51797e-12
-2.32683e-11
-2.43316e-10
1.93125e-12
-1.26767e-10
2.22575e-12
-1.40899e-11
-1.34837e-12
2.1189e-10
-4.82498e-12
2.00377e-10
-4.53007e-12
-2.35632e-11
-2.47846e-10
1.93394e-12
-1.28701e-10
2.23456e-12
-1.43906e-11
-1.34609e-12
2.15471e-10
-4.83435e-12
2.03865e-10
-4.54232e-12
-2.38553e-11
-2.52388e-10
1.93697e-12
-1.30638e-10
2.24383e-12
-1.46974e-11
-1.34364e-12
2.19058e-10
-4.84383e-12
2.07365e-10
-4.55465e-12
-2.41444e-11
-2.56943e-10
1.94025e-12
-1.32578e-10
2.25341e-12
-1.50106e-11
-1.34118e-12
2.22653e-10
-4.85352e-12
2.10877e-10
-4.5671e-12
-2.44309e-11
-2.6151e-10
1.94377e-12
-1.34522e-10
2.26334e-12
-1.53302e-11
-1.33866e-12
2.26255e-10
-4.86337e-12
2.14402e-10
-4.57964e-12
-2.47146e-11
-2.6609e-10
1.94748e-12
-1.3647e-10
2.2735e-12
-1.56562e-11
-1.33617e-12
2.29865e-10
-4.87343e-12
2.17939e-10
-4.59228e-12
-2.49957e-11
-2.70682e-10
1.95143e-12
-1.38421e-10
2.28402e-12
-1.59888e-11
-1.33356e-12
2.33482e-10
-4.88358e-12
2.21489e-10
-4.60498e-12
-2.52743e-11
-2.75287e-10
1.95556e-12
-1.40377e-10
2.29476e-12
-1.6328e-11
-1.331e-12
2.37108e-10
-4.89396e-12
2.25052e-10
-4.61778e-12
-2.55505e-11
-2.79905e-10
1.95988e-12
-1.42336e-10
2.30576e-12
-1.66739e-11
-1.32844e-12
2.40742e-10
-4.9045e-12
2.28628e-10
-4.63067e-12
-2.58243e-11
-2.84536e-10
1.96439e-12
-1.44301e-10
2.31703e-12
-1.70265e-11
-1.32589e-12
2.44385e-10
-4.91529e-12
2.32218e-10
-4.6437e-12
-2.60959e-11
-2.89179e-10
1.96915e-12
-1.4627e-10
2.32865e-12
-1.7386e-11
-1.32324e-12
2.48037e-10
-4.92619e-12
2.35821e-10
-4.65679e-12
-2.63653e-11
-2.93836e-10
1.97405e-12
-1.48244e-10
2.34042e-12
-1.77523e-11
-1.32067e-12
2.51698e-10
-4.93726e-12
2.39437e-10
-4.66997e-12
-2.66326e-11
-2.98506e-10
1.97908e-12
-1.50223e-10
2.35237e-12
-1.81256e-11
-1.31809e-12
2.55368e-10
-4.94845e-12
2.43068e-10
-4.6832e-12
-2.68979e-11
-3.03189e-10
1.98424e-12
-1.52207e-10
2.36451e-12
-1.85059e-11
-1.31554e-12
2.59049e-10
-4.95981e-12
2.46712e-10
-4.69649e-12
-2.71612e-11
-3.07886e-10
1.98957e-12
-1.54197e-10
2.37688e-12
-1.88932e-11
-1.313e-12
2.62738e-10
-4.97131e-12
2.5037e-10
-4.70985e-12
-2.74227e-11
-3.12596e-10
1.99504e-12
-1.56192e-10
2.38941e-12
-1.92876e-11
-1.3106e-12
2.66438e-10
-4.9831e-12
2.54043e-10
-4.72336e-12
-2.76824e-11
-3.17319e-10
2.00066e-12
-1.58193e-10
2.40214e-12
-1.96891e-11
-1.30827e-12
2.70149e-10
-4.99519e-12
2.5773e-10
-4.73707e-12
-2.79405e-11
-3.22056e-10
2.00649e-12
-1.60199e-10
2.41519e-12
-2.00978e-11
-1.30578e-12
2.7387e-10
-5.00728e-12
2.61431e-10
-4.75078e-12
-2.8197e-11
-3.26807e-10
2.01238e-12
-1.62211e-10
2.42828e-12
-2.05137e-11
-1.3034e-12
2.77601e-10
-5.0195e-12
2.65147e-10
-4.76454e-12
-2.8452e-11
-3.31571e-10
2.01838e-12
-1.6423e-10
2.44154e-12
-2.09368e-11
-1.30108e-12
2.81344e-10
-5.03192e-12
2.68878e-10
-4.77839e-12
-2.87055e-11
-3.3635e-10
2.02453e-12
-1.66254e-10
2.45498e-12
-2.13673e-11
-1.29883e-12
2.85098e-10
-5.04455e-12
2.72624e-10
-4.79237e-12
-2.89577e-11
-3.41142e-10
2.03076e-12
-1.68285e-10
2.46852e-12
-2.1805e-11
-1.29664e-12
2.88863e-10
-5.05735e-12
2.76385e-10
-4.80643e-12
-2.92086e-11
-3.45948e-10
2.03708e-12
-1.70322e-10
2.48219e-12
-2.22501e-11
-1.29444e-12
2.9264e-10
-5.07019e-12
2.8016e-10
-4.82051e-12
-2.94583e-11
-3.50769e-10
2.04343e-12
-1.72366e-10
2.49588e-12
-2.27026e-11
-1.29238e-12
2.96428e-10
-5.08318e-12
2.83951e-10
-4.83464e-12
-2.97068e-11
-3.55604e-10
2.04983e-12
-1.74415e-10
2.50966e-12
-2.31624e-11
-1.29041e-12
3.00228e-10
-5.09635e-12
2.87757e-10
-4.84885e-12
-2.99543e-11
-3.60452e-10
2.05632e-12
-1.76472e-10
2.52354e-12
-2.36297e-11
-1.28851e-12
3.0404e-10
-5.10971e-12
2.91578e-10
-4.86316e-12
-3.02009e-11
-3.65316e-10
2.06293e-12
-1.78535e-10
2.53762e-12
-2.41043e-11
-1.28658e-12
3.07864e-10
-5.12313e-12
2.95415e-10
-4.8775e-12
-3.04465e-11
-3.70193e-10
2.06958e-12
-1.80604e-10
2.55169e-12
-2.45865e-11
-1.28479e-12
3.11701e-10
-5.13672e-12
2.99267e-10
-4.89191e-12
-3.06913e-11
-3.75085e-10
2.07623e-12
-1.82681e-10
2.5658e-12
-2.5076e-11
-1.28305e-12
3.1555e-10
-5.15035e-12
3.03134e-10
-4.90633e-12
-3.09353e-11
-3.79991e-10
2.08291e-12
-1.84763e-10
2.57993e-12
-2.5573e-11
-1.28139e-12
3.19411e-10
-5.16411e-12
3.07017e-10
-4.92078e-12
-3.11787e-11
-3.84912e-10
2.08966e-12
-1.86853e-10
2.59416e-12
-2.60776e-11
-1.27979e-12
3.23285e-10
-5.17798e-12
3.10915e-10
-4.93527e-12
-3.14214e-11
-3.89847e-10
2.09643e-12
-1.8895e-10
2.60839e-12
-2.65895e-11
-1.27842e-12
3.27172e-10
-5.19209e-12
3.14829e-10
-4.94987e-12
-3.16636e-11
-3.94797e-10
2.10324e-12
-1.91053e-10
2.62266e-12
-2.71089e-11
-1.27714e-12
3.31071e-10
-5.20643e-12
3.18758e-10
-4.96462e-12
-3.19054e-11
-3.99762e-10
2.11019e-12
-1.93163e-10
2.63719e-12
-2.76359e-11
-1.27572e-12
3.34984e-10
-5.22076e-12
3.22703e-10
-4.97937e-12
-3.21468e-11
-4.04741e-10
2.11714e-12
-1.9528e-10
2.65166e-12
-2.81704e-11
-1.27441e-12
3.3891e-10
-5.23513e-12
3.26664e-10
-4.99409e-12
-3.23879e-11
-4.09735e-10
2.12407e-12
-1.97404e-10
2.66609e-12
-2.87125e-11
-1.27326e-12
3.4285e-10
-5.24965e-12
3.3064e-10
-5.00888e-12
-3.26286e-11
-4.14744e-10
2.13104e-12
-1.99535e-10
2.68058e-12
-2.9262e-11
-1.27219e-12
3.46803e-10
-5.26431e-12
3.34632e-10
-5.02373e-12
-3.28692e-11
-4.19768e-10
2.13802e-12
-2.01673e-10
2.6951e-12
-2.98191e-11
-1.27116e-12
3.50769e-10
-5.27905e-12
3.3864e-10
-5.03862e-12
-3.31096e-11
-4.24807e-10
2.14503e-12
-2.03818e-10
2.70965e-12
-3.03837e-11
-1.27019e-12
3.54749e-10
-5.29383e-12
3.42664e-10
-5.05349e-12
-3.335e-11
-4.2986e-10
2.15196e-12
-2.0597e-10
2.72402e-12
-3.09558e-11
-1.26959e-12
3.58742e-10
-5.30886e-12
3.46703e-10
-5.06847e-12
-3.35904e-11
-4.34929e-10
2.15884e-12
-2.08129e-10
2.73837e-12
-3.15353e-11
-1.26898e-12
3.6275e-10
-5.32399e-12
3.50758e-10
-5.08353e-12
-3.38308e-11
-4.40012e-10
2.16586e-12
-2.10295e-10
2.75301e-12
-3.21224e-11
-1.26805e-12
3.66771e-10
-5.33892e-12
3.54829e-10
-5.09845e-12
-3.40713e-11
-4.45111e-10
2.17282e-12
-2.12468e-10
2.76747e-12
-3.27171e-11
-1.2673e-12
3.70805e-10
-5.35379e-12
3.58915e-10
-5.11325e-12
-3.43118e-11
-4.50224e-10
2.17964e-12
-2.14647e-10
2.78167e-12
-3.33191e-11
-1.26697e-12
3.74854e-10
-5.36889e-12
3.63017e-10
-5.1281e-12
-3.45526e-11
-4.55352e-10
2.18632e-12
-2.16834e-10
2.79577e-12
-3.39286e-11
-1.2666e-12
3.78916e-10
-5.38402e-12
3.67135e-10
-5.14298e-12
-3.47937e-11
-4.60495e-10
2.19326e-12
-2.19027e-10
2.81028e-12
-3.45456e-11
-1.26592e-12
3.82993e-10
-5.39894e-12
3.71268e-10
-5.15769e-12
-3.50349e-11
-4.65653e-10
2.19976e-12
-2.21227e-10
2.82395e-12
-3.51698e-11
-1.2663e-12
3.87083e-10
-5.41433e-12
3.75416e-10
-5.17252e-12
-3.52768e-11
-4.70825e-10
2.20628e-12
-2.23433e-10
2.83779e-12
-3.58013e-11
-1.26672e-12
3.91187e-10
-5.42997e-12
3.79579e-10
-5.18751e-12
-3.55192e-11
-4.76013e-10
2.21405e-12
-2.25647e-10
2.85333e-12
-3.64405e-11
-1.2672e-12
3.95308e-10
-5.44829e-12
3.8376e-10
-5.20452e-12
-3.57629e-11
-4.81217e-10
2.22243e-12
-2.2787e-10
2.86991e-12
-3.70881e-11
-1.26603e-12
3.99444e-10
-5.46406e-12
3.87958e-10
-5.22029e-12
-3.60067e-11
-4.86437e-10
2.22809e-12
-2.30098e-10
2.88205e-12
-3.7742e-11
-1.26614e-12
4.03592e-10
-5.47752e-12
3.92169e-10
-5.2339e-12
-3.62504e-11
-4.91671e-10
2.23356e-12
-2.32331e-10
2.89471e-12
-3.84032e-11
-1.26644e-12
4.07753e-10
-5.49214e-12
3.96395e-10
-5.24791e-12
-3.64946e-11
-4.96919e-10
2.24038e-12
-2.34572e-10
2.90914e-12
-3.90719e-11
-1.26716e-12
4.1193e-10
-5.50871e-12
4.00637e-10
-5.26327e-12
-3.674e-11
-5.02182e-10
2.24765e-12
-2.36819e-10
2.92405e-12
-3.97483e-11
-1.26726e-12
4.16121e-10
-5.52506e-12
4.04894e-10
-5.27881e-12
-3.69863e-11
-5.07461e-10
2.25453e-12
-2.39074e-10
2.93824e-12
-4.04321e-11
-1.26769e-12
4.20327e-10
-5.54103e-12
4.09168e-10
-5.29404e-12
-3.72333e-11
-5.12755e-10
2.2611e-12
-2.41335e-10
2.95203e-12
-4.1123e-11
-1.2684e-12
4.24547e-10
-5.55691e-12
4.13456e-10
-5.30909e-12
-3.74811e-11
-5.18064e-10
2.26759e-12
-2.43602e-10
2.96578e-12
-4.18212e-11
-1.26929e-12
4.28782e-10
-5.57314e-12
4.1776e-10
-5.32434e-12
-3.77299e-11
-5.23389e-10
2.27418e-12
-2.45877e-10
2.97975e-12
-4.25267e-11
-1.26989e-12
4.33032e-10
-5.58917e-12
4.22079e-10
-5.3395e-12
-3.79796e-11
-5.28728e-10
2.28068e-12
-2.48157e-10
2.99352e-12
-4.32396e-11
-1.27064e-12
4.37296e-10
-5.60513e-12
4.26414e-10
-5.35453e-12
-3.82302e-11
-5.34083e-10
2.28703e-12
-2.50444e-10
3.00708e-12
-4.39596e-11
-1.27157e-12
4.41575e-10
-5.62108e-12
4.30763e-10
-5.3695e-12
-3.84817e-11
-5.39452e-10
2.29334e-12
-2.52738e-10
3.02062e-12
-4.46869e-11
-1.27258e-12
4.45868e-10
-5.63716e-12
4.35128e-10
-5.38451e-12
-3.87344e-11
-5.44837e-10
2.29961e-12
-2.55037e-10
3.03409e-12
-4.54214e-11
-1.27363e-12
4.50176e-10
-5.65323e-12
4.39508e-10
-5.39951e-12
-3.89881e-11
-5.50236e-10
2.30581e-12
-2.57343e-10
3.04748e-12
-4.61631e-11
-1.27474e-12
4.54498e-10
-5.66924e-12
4.43902e-10
-5.41441e-12
-3.9243e-11
-5.55651e-10
2.31193e-12
-2.59655e-10
3.06071e-12
-4.69119e-11
-1.27606e-12
4.58835e-10
-5.68535e-12
4.48311e-10
-5.42933e-12
-3.9499e-11
-5.6108e-10
2.31799e-12
-2.61973e-10
3.07388e-12
-4.76678e-11
-1.27749e-12
4.63186e-10
-5.7016e-12
4.52736e-10
-5.44432e-12
-3.97563e-11
-5.66524e-10
2.32407e-12
-2.64297e-10
3.08712e-12
-4.84308e-11
-1.27881e-12
4.67552e-10
-5.71777e-12
4.57174e-10
-5.45927e-12
-4.00148e-11
-5.71984e-10
2.3301e-12
-2.66627e-10
3.10024e-12
-4.9201e-11
-1.28025e-12
4.71932e-10
-5.73392e-12
4.61628e-10
-5.47415e-12
-4.02745e-11
-5.77458e-10
2.33605e-12
-2.68963e-10
3.11325e-12
-4.99782e-11
-1.28177e-12
4.76327e-10
-5.75008e-12
4.66096e-10
-5.48901e-12
-4.05356e-11
-5.82947e-10
2.34194e-12
-2.71305e-10
3.12619e-12
-5.07624e-11
-1.28338e-12
4.80737e-10
-5.76625e-12
4.70579e-10
-5.50384e-12
-4.0798e-11
-5.88451e-10
2.34775e-12
-2.73653e-10
3.139e-12
-5.15537e-11
-1.2851e-12
4.85161e-10
-5.78248e-12
4.75077e-10
-5.51868e-12
-4.10618e-11
-5.93969e-10
2.35352e-12
-2.76006e-10
3.15178e-12
-5.23519e-11
-1.28679e-12
4.896e-10
-5.79863e-12
4.79589e-10
-5.53345e-12
-4.1327e-11
-5.99503e-10
2.35916e-12
-2.78366e-10
3.16437e-12
-5.31571e-11
-1.28859e-12
4.94053e-10
-5.8147e-12
4.84115e-10
-5.54812e-12
-4.15936e-11
-6.05051e-10
2.3647e-12
-2.8073e-10
3.17683e-12
-5.39693e-11
-1.29047e-12
4.9852e-10
-5.83075e-12
4.88655e-10
-5.56273e-12
-4.18616e-11
-6.10614e-10
2.37018e-12
-2.831e-10
3.1892e-12
-5.47883e-11
-1.29248e-12
5.03002e-10
-5.8469e-12
4.93209e-10
-5.57738e-12
-4.21311e-11
-6.16191e-10
2.37567e-12
-2.85476e-10
3.2016e-12
-5.56142e-11
-1.29445e-12
5.07498e-10
-5.863e-12
4.97778e-10
-5.59198e-12
-4.24021e-11
-6.21783e-10
2.38106e-12
-2.87857e-10
3.21385e-12
-5.6447e-11
-1.29654e-12
5.12008e-10
-5.87911e-12
5.0236e-10
-5.60655e-12
-4.26747e-11
-6.2739e-10
2.38632e-12
-2.90244e-10
3.22592e-12
-5.72866e-11
-1.29861e-12
5.16533e-10
-5.89502e-12
5.06957e-10
-5.62096e-12
-4.29488e-11
-6.3301e-10
2.39144e-12
-2.92635e-10
3.23781e-12
-5.8133e-11
-1.30076e-12
5.21071e-10
-5.91085e-12
5.11567e-10
-5.63526e-12
-4.32244e-11
-6.38646e-10
2.39649e-12
-2.95031e-10
3.2496e-12
-5.89861e-11
-1.30293e-12
5.25624e-10
-5.92657e-12
5.16191e-10
-5.64945e-12
-4.35015e-11
-6.44295e-10
2.40128e-12
-2.97433e-10
3.26098e-12
-5.98458e-11
-1.30523e-12
5.3019e-10
-5.94201e-12
5.20827e-10
-5.66342e-12
-4.37801e-11
-6.49959e-10
2.40543e-12
-2.99838e-10
3.27146e-12
-6.07118e-11
-1.30744e-12
5.34769e-10
-5.95647e-12
5.25476e-10
-5.67671e-12
-4.40598e-11
-6.55635e-10
2.40715e-12
-3.02245e-10
3.27838e-12
-6.15831e-11
-1.30924e-12
5.39356e-10
-5.96692e-12
5.30134e-10
-5.68735e-12
-4.43394e-11
-6.61323e-10
2.39906e-12
-3.04644e-10
3.27141e-12
-6.24554e-11
-1.31026e-12
5.43938e-10
-5.96262e-12
5.34786e-10
-5.68743e-12
-4.46146e-11
-6.6701e-10
2.37058e-12
-3.07015e-10
3.23655e-12
-6.33214e-11
-1.30924e-12
5.48484e-10
-5.92652e-12
5.39404e-10
-5.66273e-12
-4.48784e-11
-6.72673e-10
2.32297e-12
-3.09338e-10
3.17557e-12
-6.4174e-11
-1.31383e-12
5.52973e-10
-5.868e-12
5.43958e-10
-5.61431e-12
-4.51321e-11
-6.78287e-10
2.28164e-12
-3.1162e-10
3.12446e-12
-6.50168e-11
-1.33357e-12
5.57431e-10
-5.84169e-12
5.48466e-10
-5.57999e-12
-4.53938e-11
-6.83867e-10
2.28302e-12
-3.13903e-10
3.1347e-12
-6.58685e-11
-1.35059e-12
5.61917e-10
-5.87827e-12
5.52994e-10
-5.59361e-12
-4.56784e-11
-6.89461e-10
2.33071e-12
-3.16233e-10
3.20512e-12
-6.67429e-11
-1.35253e-12
5.66474e-10
-5.95285e-12
5.57594e-10
-5.64656e-12
-4.59847e-11
-6.95107e-10
2.38752e-12
-3.18621e-10
3.27972e-12
-6.76351e-11
-1.3504e-12
5.71104e-10
-6.02431e-12
5.62268e-10
-5.70626e-12
-4.63028e-11
-7.00814e-10
2.42408e-12
-3.21045e-10
3.32451e-12
-6.85355e-11
-1.34652e-12
5.75775e-10
-6.06391e-12
5.66985e-10
-5.74621e-12
-4.66205e-11
-7.0656e-10
2.44009e-12
-3.23485e-10
3.34474e-12
-6.94402e-11
-1.34213e-12
5.80462e-10
-6.07713e-12
5.7172e-10
-5.76509e-12
-4.69325e-11
-7.12325e-10
2.44634e-12
-3.25931e-10
3.35515e-12
-7.0349e-11
-1.34088e-12
5.85158e-10
-6.08479e-12
5.76464e-10
-5.77589e-12
-4.72414e-11
-7.18101e-10
2.45054e-12
-3.28382e-10
3.36473e-12
-7.12632e-11
-1.34192e-12
5.89865e-10
-6.0957e-12
5.81218e-10
-5.78673e-12
-4.75504e-11
-7.23887e-10
2.45472e-12
-3.30837e-10
3.37472e-12
-7.21832e-11
-1.34423e-12
5.94584e-10
-6.10927e-12
5.85983e-10
-5.79884e-12
-4.78608e-11
-7.29686e-10
2.45895e-12
-3.33296e-10
3.38478e-12
-7.3109e-11
-1.34695e-12
5.99316e-10
-6.12369e-12
5.9076e-10
-5.81149e-12
-4.8173e-11
-7.35498e-10
2.46307e-12
-3.35759e-10
3.39464e-12
-7.40406e-11
-1.34992e-12
6.0406e-10
-6.1383e-12
5.95548e-10
-5.82421e-12
-4.84871e-11
-7.41322e-10
2.46705e-12
-3.38226e-10
3.40425e-12
-7.49778e-11
-1.35308e-12
6.08817e-10
-6.15293e-12
6.00348e-10
-5.8369e-12
-4.88031e-11
-7.47159e-10
2.47099e-12
-3.40697e-10
3.41379e-12
-7.59206e-11
-1.35634e-12
6.13588e-10
-6.16771e-12
6.05159e-10
-5.84969e-12
-4.91212e-11
-7.53009e-10
2.47501e-12
-3.43172e-10
3.42344e-12
-7.6869e-11
-1.3596e-12
6.18371e-10
-6.18257e-12
6.09982e-10
-5.86252e-12
-4.94412e-11
-7.58871e-10
2.47898e-12
-3.45651e-10
3.43302e-12
-7.78231e-11
-1.36288e-12
6.23167e-10
-6.19738e-12
6.14817e-10
-5.87532e-12
-4.97633e-11
-7.64746e-10
2.48283e-12
-3.48134e-10
3.44242e-12
-7.87827e-11
-1.36615e-12
6.27975e-10
-6.21198e-12
6.19663e-10
-5.88794e-12
-5.00873e-11
-7.70634e-10
2.48652e-12
-3.5062e-10
3.45157e-12
-7.97477e-11
-1.36959e-12
6.32796e-10
-6.22658e-12
6.2452e-10
-5.90051e-12
-5.04134e-11
-7.76535e-10
2.49027e-12
-3.5311e-10
3.46087e-12
-8.07183e-11
-1.3729e-12
6.3763e-10
-6.24116e-12
6.29388e-10
-5.91308e-12
-5.07415e-11
-7.82448e-10
2.49392e-12
-3.55604e-10
3.46999e-12
-8.16944e-11
-1.37635e-12
6.42476e-10
-6.2557e-12
6.34267e-10
-5.92559e-12
-5.10716e-11
-7.88374e-10
2.49736e-12
-3.58102e-10
3.47882e-12
-8.26758e-11
-1.37977e-12
6.47335e-10
-6.26994e-12
6.39157e-10
-5.93784e-12
-5.14037e-11
-7.94311e-10
2.5008e-12
-3.60602e-10
3.48767e-12
-8.36627e-11
-1.38321e-12
6.52206e-10
-6.28428e-12
6.44059e-10
-5.95015e-12
-5.17378e-11
-8.00262e-10
2.50438e-12
-3.63107e-10
3.49671e-12
-8.4655e-11
-1.38661e-12
6.57089e-10
-6.29866e-12
6.48971e-10
-5.96249e-12
-5.2074e-11
-8.06224e-10
2.5078e-12
-3.65615e-10
3.50543e-12
-8.56527e-11
-1.39026e-12
6.61985e-10
-6.31304e-12
6.53893e-10
-5.97476e-12
-5.24123e-11
-8.12199e-10
2.51104e-12
-3.68126e-10
3.514e-12
-8.66556e-11
-1.39368e-12
6.66893e-10
-6.32709e-12
6.58827e-10
-5.98685e-12
-5.27525e-11
-8.18186e-10
2.5143e-12
-3.7064e-10
3.52263e-12
-8.76639e-11
-1.39699e-12
6.71812e-10
-6.341e-12
6.63771e-10
-5.99879e-12
-5.30947e-11
-8.24184e-10
2.51748e-12
-3.73157e-10
3.53106e-12
-8.86775e-11
-1.40051e-12
6.76744e-10
-6.35486e-12
6.68725e-10
-6.0106e-12
-5.3439e-11
-8.30195e-10
2.52051e-12
-3.75678e-10
3.53917e-12
-8.96962e-11
-1.40456e-12
6.81687e-10
-6.36904e-12
6.7369e-10
-6.02255e-12
-5.37855e-11
-8.36218e-10
2.52347e-12
-3.78201e-10
3.54724e-12
-9.072e-11
-1.40866e-12
6.86643e-10
-6.38362e-12
6.78665e-10
-6.03488e-12
-5.41342e-11
-8.42252e-10
2.52678e-12
-3.80728e-10
3.55605e-12
-9.17492e-11
-1.41175e-12
6.91611e-10
-6.39749e-12
6.8365e-10
-6.04686e-12
-5.44848e-11
-8.48299e-10
2.52972e-12
-3.83258e-10
3.56407e-12
-9.27836e-11
-1.41535e-12
6.96591e-10
-6.41106e-12
6.88646e-10
-6.05844e-12
-5.48375e-11
-8.54358e-10
2.53244e-12
-3.8579e-10
3.5718e-12
-9.38229e-11
-1.4191e-12
7.01581e-10
-6.42455e-12
6.93651e-10
-6.0699e-12
-5.51921e-11
-8.60428e-10
2.53527e-12
-3.88326e-10
3.57974e-12
-9.48674e-11
-1.42304e-12
7.06584e-10
-6.43856e-12
6.98667e-10
-6.08168e-12
-5.5549e-11
-8.66509e-10
2.53816e-12
-3.90864e-10
3.58774e-12
-9.5917e-11
-1.42684e-12
7.11599e-10
-6.45251e-12
7.03693e-10
-6.09349e-12
-5.5908e-11
-8.72603e-10
2.54101e-12
-3.93405e-10
3.59569e-12
-9.69717e-11
-1.43056e-12
7.16625e-10
-6.46629e-12
7.08728e-10
-6.10519e-12
-5.62691e-11
-8.78708e-10
2.54368e-12
-3.95948e-10
3.60339e-12
-9.80314e-11
-1.43428e-12
7.21663e-10
-6.47974e-12
7.13774e-10
-6.11661e-12
-5.66323e-11
-8.84825e-10
2.54618e-12
-3.98495e-10
3.61084e-12
-9.90961e-11
-1.43814e-12
7.26712e-10
-6.49312e-12
7.18829e-10
-6.1279e-12
-5.69975e-11
-8.90953e-10
2.54859e-12
-4.01043e-10
3.61814e-12
-1.00166e-10
-1.44218e-12
7.31772e-10
-6.50666e-12
7.23893e-10
-6.1393e-12
-5.73648e-11
-8.97092e-10
2.55115e-12
-4.03594e-10
3.6257e-12
-1.0124e-10
-1.44608e-12
7.36844e-10
-6.52026e-12
7.28967e-10
-6.15075e-12
-5.77344e-11
-9.03243e-10
2.55374e-12
-4.06148e-10
3.63327e-12
-1.0232e-10
-1.44994e-12
7.41927e-10
-6.53386e-12
7.34051e-10
-6.16222e-12
-5.8106e-11
-9.09405e-10
2.5561e-12
-4.08704e-10
3.64052e-12
-1.03404e-10
-1.45374e-12
7.47021e-10
-6.54696e-12
7.39145e-10
-6.17333e-12
-5.84796e-11
-9.15578e-10
2.55813e-12
-4.11262e-10
3.64732e-12
-1.04493e-10
-1.45774e-12
7.52126e-10
-6.55988e-12
7.44247e-10
-6.18415e-12
-5.88554e-11
-9.21762e-10
2.56053e-12
-4.13823e-10
3.6547e-12
-1.05587e-10
-1.4615e-12
7.57243e-10
-6.57317e-12
7.49358e-10
-6.19535e-12
-5.92332e-11
-9.27958e-10
2.56288e-12
-4.16386e-10
3.66193e-12
-1.06687e-10
-1.46529e-12
7.6237e-10
-6.58628e-12
7.54479e-10
-6.20645e-12
-5.9613e-11
-9.34164e-10
2.5646e-12
-4.1895e-10
3.66828e-12
-1.0779e-10
-1.46921e-12
7.67507e-10
-6.59853e-12
7.59609e-10
-6.21671e-12
-5.99948e-11
-9.40381e-10
2.56657e-12
-4.21517e-10
3.67498e-12
-1.08899e-10
-1.47333e-12
7.72656e-10
-6.61162e-12
7.64747e-10
-6.2276e-12
-6.03789e-11
-9.46608e-10
2.56888e-12
-4.24086e-10
3.68209e-12
-1.10012e-10
-1.47746e-12
7.77815e-10
-6.62509e-12
7.69895e-10
-6.23889e-12
-6.07651e-11
-9.52847e-10
2.57079e-12
-4.26657e-10
3.68868e-12
-1.1113e-10
-1.4814e-12
7.82985e-10
-6.63771e-12
7.75051e-10
-6.24947e-12
-6.11533e-11
-9.59097e-10
2.57281e-12
-4.29229e-10
3.69546e-12
-1.12252e-10
-1.48532e-12
7.88166e-10
-6.65056e-12
7.80216e-10
-6.2602e-12
-6.15437e-11
-9.65357e-10
2.57469e-12
-4.31804e-10
3.70189e-12
-1.1338e-10
-1.48961e-12
7.93357e-10
-6.66356e-12
7.8539e-10
-6.27108e-12
-6.19362e-11
-9.71628e-10
2.57632e-12
-4.3438e-10
3.70818e-12
-1.14511e-10
-1.49347e-12
7.98559e-10
-6.67578e-12
7.90572e-10
-6.28133e-12
-6.23306e-11
-9.77909e-10
2.5782e-12
-4.36959e-10
3.71481e-12
-1.15648e-10
-1.49739e-12
8.03771e-10
-6.68851e-12
7.95764e-10
-6.29192e-12
-6.27272e-11
-9.84201e-10
2.57986e-12
-4.39539e-10
3.721e-12
-1.16789e-10
-1.50138e-12
8.08994e-10
-6.70082e-12
8.00963e-10
-6.30229e-12
-6.31257e-11
-9.90504e-10
2.58104e-12
-4.4212e-10
3.7266e-12
-1.17935e-10
-1.50546e-12
8.14226e-10
-6.71263e-12
8.0617e-10
-6.31211e-12
-6.35262e-11
-9.96816e-10
2.5829e-12
-4.44702e-10
3.73319e-12
-1.19085e-10
-1.50939e-12
8.19468e-10
-6.72531e-12
8.11386e-10
-6.32262e-12
-6.39289e-11
-1.00314e-09
2.58472e-12
-4.47287e-10
3.73951e-12
-1.2024e-10
-1.51362e-12
8.24721e-10
-6.73808e-12
8.16611e-10
-6.33327e-12
-6.43337e-11
-1.00947e-09
2.58583e-12
-4.49873e-10
3.74506e-12
-1.21399e-10
-1.51736e-12
8.29984e-10
-6.74944e-12
8.21843e-10
-6.34283e-12
-6.47403e-11
-1.01581e-09
2.5873e-12
-4.5246e-10
3.75114e-12
-1.22563e-10
-1.52105e-12
8.35256e-10
-6.76135e-12
8.27083e-10
-6.35275e-12
-6.51489e-11
-1.02217e-09
2.58885e-12
-4.55049e-10
3.75717e-12
-1.23731e-10
-1.52493e-12
8.40538e-10
-6.77327e-12
8.32331e-10
-6.36274e-12
-6.55595e-11
-1.02853e-09
2.58973e-12
-4.57639e-10
3.7622e-12
-1.24904e-10
-1.52933e-12
8.4583e-10
-6.7847e-12
8.37587e-10
-6.37207e-12
-6.59721e-11
-1.0349e-09
2.59081e-12
-4.6023e-10
3.76755e-12
-1.2608e-10
-1.53395e-12
8.51131e-10
-6.79725e-12
8.4285e-10
-6.38232e-12
-6.6387e-11
-1.04128e-09
2.59249e-12
-4.62822e-10
3.77397e-12
-1.27262e-10
-1.53741e-12
8.56443e-10
-6.80932e-12
8.48122e-10
-6.39259e-12
-6.68038e-11
-1.04768e-09
2.59343e-12
-4.65416e-10
3.77911e-12
-1.28448e-10
-1.54132e-12
8.61763e-10
-6.82029e-12
8.53401e-10
-6.4017e-12
-6.72224e-11
-1.05408e-09
2.59443e-12
-4.6801e-10
3.78438e-12
-1.29638e-10
-1.54536e-12
8.67093e-10
-6.83174e-12
8.58687e-10
-6.41115e-12
-6.7643e-11
-1.06049e-09
2.59566e-12