/*--------------------------------*- C++ -*----------------------------------*\
| =========                 |                                                 |
| \\      /  F ield         | OpenFOAM: The Open Source CFD Toolbox           |
|  \\    /   O peration     | Version:  2206                                  |
|   \\  /    A nd           | Website:  www.openfoam.com                      |
|    \\/     M anipulation  |                                                 |
\*---------------------------------------------------------------------------*/
FoamFile
{
    version     2.0;
    format      ascii;
    arch        "LSB;label=32;scalar=64";
    class       volVectorField;
    location    "5";
    object      U;
}
// * * * * * * * * * * * * * * * * * * * * * * * * * * * * * * * * * * * * * //

dimensions      [0 1 -1 0 0 0 0];

internalField   nonuniform List<vector> 
36000
(
(-23.2241 5.2167e-06 3.83254)
(-9.61157 1.18273e-05 10.654)
(15.2867 1.85385e-05 4.8267)
(14.8441 2.49452e-05 -6.77456)
(-10.6798 3.13306e-05 -14.1388)
(-29.8696 3.9166e-05 -3.83597)
(-52.6005 1.40804e-05 4.30899)
(-9.12319 3.17815e-05 12.3503)
(62.5065 4.91535e-05 5.81569)
(61.6985 6.48588e-05 -7.5369)
(-10.9645 7.9105e-05 -16.0584)
(-69.2142 9.45717e-05 -4.18614)
(-87.9499 2.3015e-05 4.44546)
(-11.2979 5.20013e-05 12.7662)
(113.023 8.0375e-05 6.03039)
(111.887 0.000105871 -7.75516)
(-13.9381 0.000128854 -16.6314)
(-116.033 0.000153909 -4.32499)
(-122.141 3.20711e-05 4.36798)
(-11.5903 7.25196e-05 12.4028)
(165.646 0.000112057 6.06433)
(164.391 0.000147481 -7.22709)
(-13.8934 0.000179267 -16.039)
(-161.44 0.000213999 -3.98067)
(-155.111 4.1137e-05 4.13516)
(-17.6289 9.30373e-05 11.5769)
(205.487 0.000143699 5.74742)
(204.249 0.000189095 -6.58625)
(-19.5294 0.000229769 -15.0944)
(-205.05 0.00027427 -3.50116)
(-184.029 5.02022e-05 3.92272)
(-21.4104 0.000113544 10.8639)
(243.869 0.000175306 5.43598)
(242.713 0.0002307 -6.04655)
(-22.6991 0.000280291 -14.2588)
(-244.06 0.000334603 -3.11228)
(-209.842 5.92513e-05 3.66557)
(-24.9135 0.000133998 10.0709)
(278.28 0.000206822 5.03471)
(277.269 0.000272241 -5.53347)
(-25.4215 0.000330791 -13.3507)
(-279.467 0.000394955 -2.75476)
(-232.298 6.82832e-05 3.38006)
(-27.9267 0.000154401 9.23023)
(308.672 0.000238254 4.58868)
(307.816 0.000313733 -5.03306)
(-27.611 0.000381286 -12.3871)
(-310.985 0.000455326 -2.4118)
(-251.596 7.72938e-05 3.09392)
(-30.8821 0.000174749 8.40344)
(334.512 0.000269623 4.13962)
(333.731 0.000355245 -4.57904)
(-29.8743 0.000431885 -11.4501)
(-338.801 0.000515773 -2.10879)
(-268.281 8.62241e-05 2.85367)
(-34.0839 0.000194867 7.70757)
(356.194 0.000300697 3.78254)
(355.491 0.000396545 -4.16514)
(-32.4314 0.000482452 -10.624)
(-363.426 0.000576271 -1.85938)
(-282.769 9.5108e-05 2.65428)
(-36.9183 0.000214838 7.13389)
(375.406 0.000331542 3.48872)
(374.851 0.000437625 -3.814)
(-34.4856 0.000532893 -9.93044)
(-385.224 0.000636771 -1.65029)
(-295.378 0.000104002 2.47275)
(-39.214 0.000234821 6.61821)
(392.766 0.000362373 3.21183)
(392.324 0.000478692 -3.52067)
(-36.0942 0.000583357 -9.32515)
(-404.725 0.000697311 -1.4672)
(-306.459 0.000112881 2.30752)
(-41.3079 0.000254751 6.15161)
(408.252 0.000393117 2.96326)
(407.933 0.000519693 -3.25743)
(-37.5058 0.000633812 -8.77782)
(-422.331 0.000757875 -1.30623)
(-316.179 0.000121745 2.15805)
(-43.1731 0.000274635 5.72676)
(422.155 0.00042379 2.73719)
(421.95 0.000560642 -3.01954)
(-38.7313 0.000684266 -8.27875)
(-438.275 0.000818464 -1.15956)
(-324.587 0.000130596 2.01006)
(-44.6699 0.000294473 5.28841)
(434.759 0.000454394 2.46674)
(434.644 0.000601542 -2.85135)
(-39.611 0.000734714 -7.84522)
(-452.588 0.000879073 -1.03427)
(-331.738 0.000139435 1.86573)
(-45.8332 0.000314276 4.84203)
(445.917 0.000484946 2.1556)
(445.296 0.000642409 -2.76319)
(-40.7106 0.000785173 -7.49088)
(-465.948 0.000939705 -0.938016)
(-337.765 0.000148268 1.74555)
(-46.5821 0.000334054 4.47669)
(456.032 0.000515458 1.91462)
(454.342 0.000683254 -2.6713)
(-42.0335 0.000835651 -7.17264)
(-478.608 0.00100036 -0.853921)
(-342.908 0.000157088 1.64392)
(-46.9754 0.000353793 4.1833)
(465.496 0.000545916 1.74204)
(462.716 0.000724061 -2.55388)
(-43.1331 0.00088613 -6.86333)
(-490.282 0.00106104 -0.774215)
(-347.376 0.000165899 1.55129)
(-47.2572 0.000373504 3.91857)
(474.153 0.000576334 1.59171)
(470.266 0.000764843 -2.43779)
(-44.1889 0.000936617 -6.57264)
(-501.155 0.00112174 -0.701077)
(-351.253 0.000174703 1.4678)
(-47.4375 0.00039319 3.6795)
(482.111 0.000606715 1.4582)
(477.111 0.000805603 -2.32956)
(-45.1926 0.000987113 -6.3059)
(-511.305 0.00118245 -0.633748)
(-354.616 0.000183498 1.3914)
(-47.536 0.000412849 3.46107)
(489.447 0.00063706 1.33627)
(483.334 0.000846341 -2.23117)
(-46.1485 0.00103762 -6.06189)
(-520.81 0.00124318 -0.572773)
(-357.52 0.000192287 1.32184)
(-47.5575 0.000432489 3.26174)
(496.231 0.000667377 1.22631)
(489.008 0.000887062 -2.13949)
(-47.0618 0.00108813 -5.83658)
(-529.737 0.00130394 -0.516018)
(-360.021 0.00020107 1.25769)
(-47.5165 0.000452106 3.07847)
(502.516 0.000697664 1.12494)
(494.193 0.000927765 -2.0558)
(-47.9372 0.00113865 -5.62864)
(-538.142 0.00136471 -0.464219)
(-362.16 0.000209846 1.1985)
(-47.4201 0.000471705 2.91002)
(508.354 0.000727925 1.03222)
(498.938 0.000968454 -1.9784)
(-48.7823 0.00118918 -5.43611)
(-546.078 0.00142549 -0.416856)
(-363.979 0.000218618 1.14358)
(-47.2773 0.000491285 2.7546)
(513.788 0.000758162 0.947001)
(503.292 0.00100913 -1.90704)
(-49.6007 0.00123972 -5.25798)
(-553.588 0.0014863 -0.373945)
(-365.512 0.000227384 1.09308)
(-47.0927 0.00051085 2.61156)
(518.858 0.000788378 0.869685)
(507.296 0.00104979 -1.83988)
(-50.3966 0.00129028 -5.09208)
(-560.713 0.00154712 -0.333946)
(-366.791 0.000236145 1.04633)
(-46.8735 0.000530398 2.47926)
(523.601 0.000818574 0.798403)
(510.988 0.00109045 -1.77749)
(-51.1705 0.00134084 -4.93745)
(-567.486 0.00160796 -0.296867)
(-367.841 0.000244903 1.00298)
(-46.6227 0.000549933 2.35675)
(528.045 0.000848751 0.732875)
(514.399 0.00113109 -1.71886)
(-51.925 0.00139141 -4.79243)
(-573.936 0.00166881 -0.262187)
(-368.685 0.000253656 0.962236)
(-46.3442 0.000569453 2.24209)
(532.217 0.00087891 0.671666)
(517.557 0.00117173 -1.66377)
(-52.6582 0.001442 -4.65555)
(-580.086 0.00172968 -0.230019)
(-369.333 0.000262405 0.923567)
(-46.0299 0.000588962 2.13323)
(536.135 0.000909054 0.614009)
(520.482 0.00121236 -1.6102)
(-53.3612 0.0014926 -4.52274)
(-585.946 0.00179057 -0.19853)
(-369.776 0.000271152 0.885501)
(-45.668 0.000608459 2.02728)
(539.799 0.00093918 0.557224)
(523.176 0.00125298 -1.55812)
(-54.0208 0.00154321 -4.38974)
(-591.503 0.00185147 -0.166578)
(-370.007 0.000279889 0.846999)
(-45.2648 0.000627926 1.92356)
(543.176 0.000969265 0.5009)
(525.609 0.00129357 -1.50926)
(-54.6449 0.00159382 -4.258)
(-596.742 0.00191239 -0.137518)
(-370.053 0.000288605 0.809159)
(-44.8658 0.000647341 1.82493)
(546.241 0.000999298 0.449205)
(527.743 0.00133413 -1.46526)
(-55.2744 0.00164443 -4.13734)
(-601.685 0.00197332 -0.117525)
(-369.96 0.000297321 0.777359)
(-44.4917 0.000666757 1.73952)
(549.044 0.00102935 0.410336)
(529.624 0.00137472 -1.42188)
(-55.9421 0.00169508 -4.03083)
(-606.39 0.00203428 -0.100979)
(-369.768 0.000306055 0.753809)
(-44.1248 0.000686209 1.67046)
(551.684 0.00105946 0.380941)
(531.363 0.00141536 -1.38091)
(-56.6259 0.00174579 -3.93505)
(-610.892 0.00209528 -0.0822692)
(-369.529 0.000314789 0.734002)
(-43.7788 0.000705655 1.6119)
(554.207 0.00108954 0.353079)
(533.014 0.001456 -1.34585)
(-57.3207 0.00179652 -3.84884)
(-615.234 0.00215631 -0.0649074)
(-369.25 0.000323513 0.713766)
(-43.4198 0.000725078 1.55626)
(556.668 0.0011196 0.326012)
(534.634 0.0014966 -1.31215)
(-57.9856 0.00184723 -3.76765)
(-619.432 0.00221734 -0.0492098)
(-368.922 0.00033224 0.692854)
(-43.0396 0.000744503 1.49972)
(559.043 0.00114964 0.299278)
(536.197 0.00153719 -1.27836)
(-58.6121 0.00189793 -3.68752)
(-623.49 0.00227837 -0.0332941)
(-368.54 0.000340966 0.672221)
(-42.6604 0.000763923 1.44372)
(561.306 0.00117968 0.272366)
(537.669 0.00157777 -1.24706)
(-59.23 0.00194864 -3.61039)
(-627.418 0.00233942 -0.0180599)
(-368.106 0.000349691 0.652593)
(-42.2833 0.000783337 1.39077)
(563.467 0.00120972 0.24708)
(539.06 0.00161835 -1.21762)
(-59.8436 0.00199936 -3.53713)
(-631.223 0.00240048 -0.0037821)
(-367.625 0.000358414 0.63397)
(-41.9077 0.000802745 1.34091)
(565.538 0.00123974 0.223495)
(540.379 0.00165893 -1.18974)
(-60.4523 0.00205009 -3.46764)
(-634.911 0.00246155 0.00939377)
(-367.103 0.000367136 0.616477)
(-41.5342 0.000822149 1.29409)
(567.524 0.00126976 0.201803)
(541.635 0.0016995 -1.16289)
(-61.0567 0.00210082 -3.4013)
(-638.492 0.00252264 0.0219662)
(-366.544 0.000375857 0.599955)
(-41.1638 0.000841546 1.24995)
(569.434 0.00129978 0.181477)
(542.832 0.00174008 -1.13733)
(-61.6568 0.00215157 -3.33795)
(-641.971 0.00258373 0.0338869)
(-365.954 0.000384576 0.58432)
(-40.7964 0.000860939 1.20827)
(571.272 0.00132978 0.162516)
(543.976 0.00178065 -1.11285)
(-62.2528 0.00220232 -3.27728)
(-645.353 0.00264484 0.0452444)
(-365.335 0.000393295 0.569378)
(-40.4329 0.000880327 1.16865)
(573.043 0.00135979 0.144693)
(545.072 0.00182122 -1.08941)
(-62.8447 0.00225308 -3.21917)
(-648.645 0.00270596 0.0558893)
(-364.69 0.000402012 0.555111)
(-40.0714 0.000899708 1.13066)
(574.752 0.00138978 0.128106)
(546.123 0.00186178 -1.06646)
(-63.4317 0.00230385 -3.16297)
(-651.848 0.00276709 0.0661837)
(-364.017 0.000410725 0.541018)
(-39.7083 0.000919077 1.09258)
(576.399 0.00141976 0.112305)
(547.13 0.00190233 -1.04315)
(-64.0089 0.00235462 -3.10759)
(-654.963 0.00282823 0.0761755)
(-363.303 0.000419432 0.527015)
(-39.3308 0.000938418 1.05511)
(577.98 0.00144969 0.101163)
(548.083 0.00194285 -1.01472)
(-64.5594 0.00240537 -3.04969)
(-657.977 0.00288937 0.08706)
(-362.567 0.000428108 0.517098)
(-38.9833 0.00095767 1.03121)
(579.455 0.00147952 0.107482)
(548.949 0.00198327 -0.974611)
(-65.0805 0.00245606 -2.98811)
(-660.88 0.0029505 0.100025)
(-361.918 0.000436731 0.514922)
(-38.7879 0.000976801 1.02717)
(580.836 0.00150926 0.128073)
(549.795 0.00202362 -0.933115)
(-65.5655 0.00250669 -2.93392)
(-663.698 0.00301161 0.1102)
(-361.342 0.000445372 0.511824)
(-38.6771 0.000996002 1.01886)
(582.275 0.0015391 0.133584)
(550.782 0.00206406 -0.908265)
(-65.935 0.00255738 -2.89215)
(-666.475 0.00307273 0.1164)
(-360.779 0.000454067 0.503344)
(-38.5806 0.00101533 0.996735)
(583.724 0.00156905 0.12447)
(551.773 0.00210458 -0.891541)
(-66.2564 0.00260815 -2.8514)
(-669.241 0.00313389 0.12298)
(-360.218 0.000462769 0.494328)
(-38.4947 0.00103466 0.973241)
(585.138 0.00159898 0.117182)
(552.727 0.00214509 -0.87266)
(-66.5682 0.00265892 -2.80857)
(-671.961 0.00319506 0.129859)
(-359.659 0.000471472 0.485544)
(-38.42 0.00105399 0.950617)
(586.519 0.00162892 0.110576)
(553.667 0.0021856 -0.854073)
(-66.8685 0.0027097 -2.76646)
(-674.627 0.00325625 0.13668)
(-359.094 0.000480175 0.476783)
(-38.3502 0.00107332 0.927881)
(587.866 0.00165885 0.104821)
(554.592 0.00222611 -0.834015)
(-67.1504 0.00276049 -2.72298)
(-677.234 0.00331744 0.143917)
(-358.516 0.000488878 0.466924)
(-38.2801 0.00109265 0.902104)
(589.16 0.00168877 0.102138)
(555.496 0.00226661 -0.805811)
(-67.3905 0.00281128 -2.67083)
(-679.756 0.00337864 0.153376)
(-357.815 0.00049758 0.466413)
(-38.1209 0.00111197 0.909534)
(590.355 0.00171869 0.140117)
(556.403 0.00230712 -0.730634)
(-67.4894 0.00286208 -2.58209)
(-682.106 0.00343984 0.170742)
(-357.601 0.000506278 0.471303)
(-38.3557 0.00113128 0.93674)
(590.969 0.00174861 0.186219)
(557.215 0.00234762 -0.660155)
(-67.4778 0.00291288 -2.5041)
(-684.284 0.00350105 0.185097)
(-357.384 0.000514974 0.468155)
(-38.4865 0.00115058 0.935267)
(591.798 0.00177852 0.194057)
(558.221 0.00238812 -0.637657)
(-67.2879 0.00296368 -2.46605)
(-686.332 0.00356228 0.190619)
(-357.196 0.000523671 0.462178)
(-38.6584 0.00116988 0.921457)
(592.577 0.00180843 0.192763)
(559.198 0.00242862 -0.62016)
(-67.1015 0.00301449 -2.43015)
(-688.344 0.0036235 0.195973)
(-357.017 0.000532367 0.456343)
(-38.8343 0.00118919 0.907925)
(593.357 0.00183835 0.190717)
(560.185 0.00246912 -0.605024)
(-66.9024 0.00306531 -2.39734)
(-690.321 0.00368474 0.20057)
(-356.849 0.000541064 0.450672)
(-39.0234 0.00120849 0.894658)
(594.124 0.00186825 0.188698)
(561.168 0.00250962 -0.590404)
(-66.7018 0.00311613 -2.36544)
(-692.268 0.00374598 0.205021)
(-356.693 0.00054976 0.445238)
(-39.2226 0.00122778 0.882058)
(594.884 0.00189816 0.186824)
(562.152 0.00255012 -0.576472)
(-66.498 0.00316696 -2.33474)
(-694.186 0.00380723 0.2092)
(-356.547 0.000558456 0.44001)
(-39.4326 0.00124708 0.870031)
(595.637 0.00192807 0.185131)
(563.137 0.00259062 -0.563082)
(-66.2922 0.00321779 -2.3051)
(-696.079 0.00386849 0.213124)
(-356.413 0.000567152 0.434975)
(-39.6528 0.00126638 0.858568)
(596.385 0.00195797 0.183647)
(564.123 0.00263112 -0.550187)
(-66.0846 0.00326862 -2.27649)
(-697.947 0.00392975 0.216781)
(-356.291 0.000575849 0.430166)
(-39.8834 0.00128567 0.847658)
(597.127 0.00198788 0.182394)
(565.112 0.00267162 -0.537711)
(-65.8754 0.00331946 -2.24881)
(-699.791 0.00399102 0.220275)
(-356.181 0.000584545 0.425558)
(-40.1239 0.00130497 0.837235)
(597.867 0.00201778 0.181272)
(566.103 0.00271212 -0.525713)
(-65.6649 0.00337031 -2.22203)
(-701.614 0.0040523 0.223603)
(-356.084 0.000593241 0.421147)
(-40.3742 0.00132426 0.82728)
(598.604 0.00204768 0.180288)
(567.098 0.00275262 -0.514151)
(-65.4533 0.00342116 -2.19611)
(-703.416 0.00411358 0.226806)
(-355.999 0.000601938 0.416886)
(-40.634 0.00134355 0.817728)
(599.339 0.00207758 0.179397)
(568.097 0.00279311 -0.503032)
(-65.2408 0.00347201 -2.17101)
(-705.198 0.00417487 0.229824)
(-355.926 0.000610634 0.4128)
(-40.9032 0.00136284 0.808603)
(600.074 0.00210748 0.178658)
(569.1 0.00283361 -0.492276)
(-65.0279 0.00352287 -2.14668)
(-706.962 0.00423617 0.232717)
(-355.865 0.000619331 0.40886)
(-41.1815 0.00138213 0.799851)
(600.808 0.00213738 0.177981)
(570.107 0.00287411 -0.481945)
(-64.8145 0.00357373 -2.1231)
(-708.709 0.00429747 0.235462)
(-355.817 0.000628028 0.405058)
(-41.4688 0.00140142 0.791456)
(601.542 0.00216728 0.177392)
(571.119 0.00291461 -0.471992)
(-64.6011 0.00362459 -2.10023)
(-710.438 0.00435877 0.238065)
(-355.781 0.000636725 0.401373)
(-41.7647 0.00142071 0.783401)
(602.278 0.00219718 0.176898)
(572.135 0.0029551 -0.462401)
(-64.3879 0.00367546 -2.0781)
(-712.153 0.00442008 0.240483)
(-355.758 0.000645423 0.397838)
(-42.0694 0.00144 0.775701)
(603.015 0.00222707 0.176542)
(573.157 0.0029956 -0.453096)
(-64.1751 0.00372633 -2.0566)
(-713.852 0.0044814 0.242797)
(-355.746 0.00065412 0.394429)
(-42.3823 0.00145929 0.768288)
(603.755 0.00225697 0.176222)
(574.185 0.0030361 -0.44414)
(-63.9628 0.00377721 -2.03573)
(-715.538 0.00454272 0.245008)
(-355.747 0.000662818 0.391134)
(-42.7034 0.00147858 0.761152)
(604.497 0.00228687 0.175958)
(575.218 0.0030766 -0.435493)
(-63.751 0.00382809 -2.01545)
(-717.21 0.00460405 0.247125)
(-355.76 0.000671516 0.387938)
(-43.0323 0.00149787 0.754281)
(605.242 0.00231676 0.175743)
(576.256 0.00311709 -0.427155)
(-63.5401 0.00387897 -1.99574)
(-718.87 0.00466538 0.249119)
(-355.785 0.000680214 0.384853)
(-43.3691 0.00151716 0.747681)
(605.99 0.00234666 0.17559)
(577.3 0.00315759 -0.419102)
(-63.3302 0.00392985 -1.97658)
(-720.519 0.00472672 0.251012)
(-355.821 0.000688912 0.381863)
(-43.7135 0.00153645 0.74133)
(606.742 0.00237655 0.175448)
(578.35 0.00319809 -0.411383)
(-63.1216 0.00398074 -1.95799)
(-722.155 0.00478806 0.252786)
(-355.869 0.000697611 0.378946)
(-44.0653 0.00155573 0.735207)
(607.499 0.00240645 0.175363)
(579.406 0.00323858 -0.403943)
(-62.9145 0.00403164 -1.93999)
(-723.782 0.00484941 0.254389)
(-355.929 0.00070631 0.376139)
(-44.4244 0.00157502 0.729344)
(608.26 0.00243634 0.175391)
(580.468 0.00327908 -0.396676)
(-62.709 0.00408253 -1.92243)
(-725.399 0.00491076 0.255935)
(-356 0.000715009 0.373411)
(-44.7904 0.00159431 0.723654)
(609.026 0.00246624 0.175418)
(581.537 0.00331958 -0.389671)
(-62.5047 0.00413343 -1.90533)
(-727.006 0.00497212 0.25741)
(-356.082 0.000723708 0.370768)
(-45.1634 0.00161359 0.718159)
(609.797 0.00249613 0.175495)
(582.611 0.00336007 -0.382894)
(-62.3023 0.00418433 -1.88872)
(-728.605 0.00503348 0.258797)
(-356.176 0.000732408 0.368223)
(-45.5432 0.00163288 0.712868)
(610.573 0.00252602 0.175604)
(583.692 0.00340057 -0.376353)
(-62.1019 0.00423524 -1.87255)
(-730.195 0.00509484 0.260131)
(-356.28 0.000741108 0.365746)
(-45.9295 0.00165217 0.707743)
(611.355 0.00255592 0.175729)
(584.779 0.00344107 -0.370034)
(-61.9033 0.00428614 -1.85682)
(-731.777 0.00515621 0.261384)
(-356.396 0.000749808 0.363349)
(-46.3222 0.00167146 0.702787)
(612.143 0.00258581 0.175894)
(585.872 0.00348157 -0.363894)
(-61.7066 0.00433705 -1.84146)
(-733.353 0.00521759 0.262596)
(-356.521 0.000758509 0.361012)
(-46.721 0.00169074 0.697964)
(612.937 0.00261571 0.176039)
(586.971 0.00352206 -0.35798)
(-61.512 0.00438796 -1.82649)
(-734.921 0.00527896 0.263746)
(-356.657 0.00076721 0.358735)
(-47.1259 0.00171003 0.693285)
(613.737 0.0026456 0.176191)
(588.076 0.00356256 -0.352273)
(-61.3196 0.00443888 -1.8119)
(-736.482 0.00534034 0.264831)
(-356.803 0.000775911 0.356503)
(-47.5365 0.00172932 0.688745)
(614.543 0.00267549 0.176366)
(589.187 0.00360306 -0.346756)
(-61.1295 0.0044898 -1.7977)
(-738.037 0.00540173 0.265812)
(-356.959 0.000784612 0.354345)
(-47.9531 0.0017486 0.684363)
(615.355 0.00270539 0.176596)
(590.304 0.00364355 -0.341377)
(-60.9419 0.00454072 -1.78384)
(-739.586 0.00546312 0.266752)
(-357.125 0.000793314 0.352245)
(-48.3752 0.00176789 0.680094)
(616.173 0.00273528 0.176807)
(591.427 0.00368405 -0.336193)
(-60.7566 0.00459164 -1.77032)
(-741.129 0.00552451 0.267644)
(-357.3 0.000802016 0.350198)
(-48.8025 0.00178718 0.675932)
(616.998 0.00276517 0.177019)
(592.556 0.00372455 -0.331164)
(-60.5737 0.00464256 -1.7571)
(-742.667 0.00558591 0.268504)
(-357.484 0.000810719 0.34819)
(-49.2352 0.00180647 0.671873)
(617.829 0.00279507 0.177225)
(593.69 0.00376504 -0.326304)
(-60.3933 0.00469349 -1.74418)
(-744.2 0.00564731 0.269302)
(-357.677 0.000819422 0.346236)
(-49.673 0.00182575 0.667937)
(618.667 0.00282496 0.177447)
(594.83 0.00380554 -0.321595)
(-60.2155 0.00474442 -1.73157)
(-745.728 0.00570871 0.270052)
(-357.879 0.000828125 0.344325)
(-50.1158 0.00184504 0.664095)
(619.511 0.00285485 0.177631)
(595.975 0.00384604 -0.317084)
(-60.0405 0.00479535 -1.71928)
(-747.251 0.00577012 0.270746)
(-358.09 0.000836828 0.342441)
(-50.5634 0.00186433 0.660343)
(620.362 0.00288475 0.177823)
(597.125 0.00388653 -0.312725)
(-59.8683 0.00484628 -1.70731)
(-748.77 0.00583153 0.271343)
(-358.309 0.000845532 0.340616)
(-51.0158 0.00188362 0.656736)
(621.219 0.00291464 0.178087)
(598.281 0.00392703 -0.308442)
(-59.699 0.00489722 -1.6956)
(-750.286 0.00589294 0.27191)
(-358.536 0.000854236 0.33883)
(-51.4726 0.00190291 0.653198)
(622.083 0.00294454 0.178331)
(599.442 0.00396753 -0.304288)
(-59.5322 0.00494815 -1.68412)
(-751.797 0.00595436 0.272455)
(-358.772 0.000862941 0.337083)
(-51.9341 0.0019222 0.649721)
(622.954 0.00297443 0.178563)
(600.608 0.00400802 -0.300272)
(-59.3683 0.00499909 -1.6729)
(-753.304 0.00601578 0.272961)
(-359.015 0.000871645 0.335384)
(-52.3997 0.00194149 0.646333)
(623.832 0.00300432 0.178796)
(601.78 0.00404852 -0.296383)
(-59.2073 0.00505003 -1.66195)
(-754.808 0.0060772 0.273448)
(-359.266 0.000880351 0.333719)
(-52.8697 0.00196078 0.643026)
(624.716 0.00303422 0.179026)
(602.956 0.00408902 -0.292611)
(-59.0492 0.00510098 -1.65122)
(-756.309 0.00613863 0.2739)
(-359.524 0.000889056 0.332093)
(-53.3437 0.00198007 0.639794)
(625.606 0.00306411 0.179259)
(604.137 0.00412952 -0.288941)
(-58.8939 0.00515192 -1.64071)
(-757.806 0.00620005 0.27433)
(-359.79 0.000897762 0.330495)
(-53.8218 0.00199936 0.636591)
(626.504 0.00309401 0.179418)
(605.322 0.00417001 -0.28545)
(-58.7417 0.00520287 -1.63045)
(-759.301 0.00626149 0.274729)
(-360.062 0.000906468 0.328903)
(-54.3031 0.00201865 0.633432)
(627.408 0.0031239 0.179589)
(606.512 0.00421051 -0.282043)
(-58.5925 0.00525382 -1.62043)
(-760.793 0.00632292 0.275051)
(-360.342 0.000915174 0.327369)
(-54.7888 0.00203794 0.630407)
(628.318 0.0031538 0.17984)
(607.706 0.00425101 -0.27865)
(-58.4464 0.00530477 -1.61053)
(-762.282 0.00638436 0.275392)
(-360.627 0.000923881 0.325848)
(-55.2774 0.00205723 0.627408)
(629.235 0.00318369 0.180044)
(608.905 0.0042915 -0.275367)
(-58.3026 0.00535572 -1.60079)
(-763.768 0.0064458 0.275713)
(-360.92 0.000932589 0.324354)
(-55.7703 0.00207652 0.624402)
(630.157 0.00321359 0.180172)
(610.107 0.004332 -0.272238)
(-58.1621 0.00540667 -1.59127)
(-765.251 0.00650724 0.276018)
(-361.217 0.000941296 0.322854)
(-56.2653 0.00209581 0.621416)
(631.086 0.00324348 0.180296)
(611.313 0.0043725 -0.269181)
(-58.0245 0.00545763 -1.58194)
(-766.731 0.00656869 0.276246)
(-361.521 0.000950004 0.321436)
(-56.7647 0.00211511 0.618611)
(632.02 0.00327338 0.180486)
(612.522 0.004413 -0.266162)
(-57.89 0.00550858 -1.5727)
(-768.209 0.00663014 0.276568)
(-361.831 0.000958713 0.319969)
(-57.2667 0.0021344 0.615666)
(632.96 0.00330328 0.180438)
(613.735 0.0044535 -0.263425)
(-57.7585 0.00555954 -1.56372)
(-769.685 0.00669159 0.2767)
(-362.144 0.000967422 0.318527)
(-57.7704 0.00215369 0.612795)
(633.906 0.00333317 0.180415)
(614.95 0.00449399 -0.260762)
(-57.6292 0.0056105 -1.55496)
(-771.156 0.00675304 0.276913)
(-362.465 0.000976134 0.317099)
(-58.2802 0.00217299 0.610356)
(634.858 0.00336308 0.180677)
(616.166 0.0045345 -0.258385)
(-57.5076 0.00566147 -1.54713)
(-772.629 0.0068145 0.276511)
(-362.794 0.000984834 0.316013)
(-58.7932 0.00219227 0.608225)
(635.82 0.00339295 0.18131)
(617.395 0.00457498 -0.255493)
(-57.3875 0.00571242 -1.53886)
(-774.103 0.00687595 0.276666)
(-363.125 0.000993547 0.314601)
(-59.3041 0.00221157 0.605184)
(636.79 0.00342286 0.181053)
(618.625 0.00461549 -0.252809)
(-57.2658 0.00576339 -1.52995)
(-775.571 0.00693741 0.2771)
(-363.461 0.00100226 0.313126)
(-59.82 0.00223087 0.602169)
(637.758 0.00345276 0.180937)
(619.853 0.00465598 -0.250267)
(-57.1485 0.00581435 -1.52149)
(-777.036 0.00699888 0.277261)
(-363.8 0.00101097 0.311798)
(-60.3392 0.00225017 0.599636)
(638.733 0.00348266 0.181035)
(621.083 0.00469648 -0.247976)
(-57.0366 0.00586532 -1.51369)
(-778.499 0.00706034 0.277191)
(-364.145 0.00101968 0.310573)
(-60.8614 0.00226946 0.597303)
(639.714 0.00351255 0.181253)
(622.318 0.00473698 -0.245638)
(-56.9276 0.00591629 -1.506)
(-779.961 0.00712181 0.277171)
(-364.495 0.00102839 0.309343)
(-61.385 0.00228876 0.594861)
(640.702 0.00354245 0.181333)
(623.556 0.00477748 -0.243371)
(-56.8207 0.00596726 -1.49833)
(-781.422 0.00718328 0.27719)
(-364.848 0.0010371 0.308106)
(-61.9113 0.00230805 0.592358)
(641.694 0.00357235 0.181351)
(624.797 0.00481798 -0.24117)
(-56.7171 0.00601823 -1.49074)
(-782.88 0.00724475 0.277226)
(-365.206 0.00104581 0.306873)
(-62.4395 0.00232735 0.589877)
(642.693 0.00360225 0.181343)
(626.039 0.00485847 -0.239075)
(-56.6166 0.0060692 -1.48336)
(-784.338 0.00730622 0.277207)
(-365.568 0.00105453 0.30567)
(-62.9701 0.00234665 0.587482)
(643.696 0.00363215 0.181402)
(627.284 0.00489897 -0.236963)
(-56.5194 0.00612017 -1.47606)
(-785.794 0.0073677 0.277194)
(-365.933 0.00106324 0.304478)
(-63.5025 0.00236595 0.58509)
(644.705 0.00366205 0.181421)
(628.532 0.00493947 -0.234913)
(-56.4247 0.00617115 -1.46885)
(-787.248 0.00742918 0.277184)
(-366.302 0.00107195 0.303291)
(-64.037 0.00238524 0.582685)
(645.718 0.00369195 0.181411)
(629.781 0.00497997 -0.23292)
(-56.3332 0.00622212 -1.46175)
(-788.7 0.00749066 0.277161)
(-366.674 0.00108066 0.302124)
(-64.5733 0.00240454 0.580315)
(646.736 0.00372185 0.181388)
(631.032 0.00502047 -0.230995)
(-56.2446 0.0062731 -1.45477)
(-790.151 0.00755214 0.277132)
(-367.049 0.00108938 0.300967)
(-65.1115 0.00242384 0.577972)
(647.759 0.00375175 0.181354)
(632.284 0.00506097 -0.229118)
(-56.159 0.00632407 -1.44791)
(-791.6 0.00761362 0.277084)
(-367.427 0.00109809 0.299823)
(-65.6513 0.00244314 0.575647)
(648.786 0.00378165 0.181312)
(633.538 0.00510146 -0.227281)
(-56.0763 0.00637505 -1.44113)
(-793.048 0.00767511 0.277032)
(-367.808 0.0011068 0.298687)
(-66.1929 0.00246244 0.57333)
(649.818 0.00381155 0.181228)
(634.793 0.00514196 -0.225521)
(-55.9965 0.00642603 -1.43446)
(-794.493 0.00773659 0.276967)
(-368.191 0.00111552 0.297554)
(-66.7359 0.00248174 0.571032)
(650.854 0.00384145 0.181132)
(636.05 0.00518246 -0.223823)
(-55.9197 0.00647701 -1.42793)
(-795.938 0.00779808 0.276861)
(-368.577 0.00112423 0.296439)
(-67.2806 0.00250104 0.56878)
(651.894 0.00387135 0.181066)
(637.308 0.00522296 -0.222132)
(-55.846 0.00652799 -1.42149)
(-797.38 0.00785957 0.276742)
(-368.966 0.00113295 0.295335)
(-67.8267 0.00252034 0.566541)
(652.939 0.00390125 0.180982)
(638.566 0.00526346 -0.220485)
(-55.775 0.00657898 -1.41513)
(-798.822 0.00792106 0.276623)
(-369.357 0.00114166 0.294241)
(-68.3742 0.00253965 0.564309)
(653.988 0.00393116 0.180886)
(639.826 0.00530396 -0.218878)
(-55.7069 0.00662996 -1.40886)
(-800.261 0.00798256 0.276492)
(-369.75 0.00115038 0.293166)
(-68.9231 0.00255895 0.562099)
(655.04 0.00396106 0.180778)
(641.087 0.00534446 -0.217314)
(-55.6416 0.00668094 -1.40269)
(-801.699 0.00804405 0.276371)
(-370.145 0.0011591 0.292095)
(-69.4732 0.00257825 0.559896)
(656.097 0.00399096 0.18065)
(642.348 0.00538496 -0.215799)
(-55.5792 0.00673193 -1.39661)
(-803.136 0.00810555 0.27623)
(-370.541 0.00116781 0.29104)
(-70.0245 0.00259755 0.557716)
(657.157 0.00402086 0.180528)
(643.61 0.00542545 -0.2143)
(-55.5196 0.00678291 -1.3906)
(-804.571 0.00816705 0.276097)
(-370.94 0.00117653 0.289989)
(-70.5769 0.00261686 0.555532)
(658.221 0.00405077 0.180376)
(644.873 0.00546595 -0.212843)
(-55.4627 0.0068339 -1.38466)
(-806.004 0.00822855 0.275962)
(-371.34 0.00118524 0.288945)
(-71.1303 0.00263616 0.553356)
(659.288 0.00408067 0.180207)
(646.135 0.00550645 -0.211423)
(-55.4084 0.00688489 -1.37879)
(-807.436 0.00829005 0.275829)
(-371.742 0.00119396 0.287901)
(-71.6848 0.00265547 0.551189)
(660.358 0.00411057 0.180024)
(647.398 0.00554695 -0.21005)
(-55.357 0.00693588 -1.37302)
(-808.865 0.00835156 0.275661)
(-372.144 0.00120268 0.286874)
(-72.2403 0.00267477 0.549056)
(661.432 0.00414048 0.17986)
(648.661 0.00558745 -0.208688)
(-55.3083 0.00698687 -1.36733)
(-810.294 0.00841306 0.275494)
(-372.549 0.0012114 0.285857)
(-72.7967 0.00269408 0.546927)
(662.509 0.00417038 0.179671)
(649.924 0.00562795 -0.207369)
(-55.2623 0.00703786 -1.36171)
(-811.72 0.00847457 0.275323)
(-372.954 0.00122011 0.284845)
(-73.3537 0.00271338 0.544794)
(663.589 0.00420029 0.179469)
(651.187 0.00566845 -0.206059)
(-55.2188 0.00708885 -1.35612)
(-813.145 0.00853608 0.275167)
(-373.36 0.00122883 0.283832)
(-73.9117 0.00273269 0.542656)
(664.671 0.00423019 0.179243)
(652.45 0.00570895 -0.204781)
(-55.1779 0.00713984 -1.35059)
(-814.568 0.00859758 0.275005)
(-373.767 0.00123755 0.282826)
(-74.4703 0.002752 0.540529)
(665.756 0.0042601 0.179011)
(653.712 0.00574945 -0.203522)
(-55.1395 0.00719083 -1.34511)
(-815.989 0.0086591 0.274841)
(-374.174 0.00124627 0.281815)
(-75.0295 0.00277131 0.538361)
(666.843 0.00429 0.178724)
(654.973 0.00578995 -0.202291)
(-55.1035 0.00724182 -1.33963)
(-817.408 0.00872061 0.274688)
(-374.581 0.00125499 0.280758)
(-75.5885 0.00279062 0.536056)
(667.933 0.00431991 0.178351)
(656.234 0.00583045 -0.20102)
(-55.0693 0.00729282 -1.33402)
(-818.824 0.00878212 0.27457)
(-374.987 0.00126371 0.279553)
(-76.1469 0.00280992 0.533125)
(669.022 0.00434982 0.177658)
(657.492 0.00587095 -0.199477)
(-55.0359 0.00734381 -1.32767)
(-820.235 0.00884364 0.274648)
(-375.383 0.00127243 0.27766)
(-76.6978 0.00282924 0.52758)
(670.107 0.00437973 0.175689)
(658.742 0.00591145 -0.19688)
(-54.9965 0.00739481 -1.31836)
(-821.635 0.00890515 0.275543)
(-375.747 0.00128116 0.274174)
(-77.2253 0.00284857 0.516722)
(671.164 0.00440965 0.171202)
(659.965 0.00595194 -0.192022)
(-54.9356 0.00744579 -1.30241)
(-822.996 0.00896666 0.278393)
(-376.049 0.00128991 0.269068)
(-77.7232 0.00286794 0.501179)
(672.147 0.00443959 0.163441)
(661.111 0.00599243 -0.187004)
(-54.8476 0.00749675 -1.28108)
(-824.283 0.00902817 0.283422)
(-376.293 0.00129867 0.263601)
(-78.2135 0.00288732 0.487639)
(673.032 0.00446954 0.155336)
(662.141 0.00603293 -0.186737)
(-54.7745 0.00754773 -1.26557)
(-825.498 0.00908967 0.285318)
(-376.52 0.00130741 0.260731)
(-78.7257 0.00290664 0.485331)
(673.881 0.00449945 0.154238)
(663.114 0.00607344 -0.190074)
(-54.7562 0.00759874 -1.26378)
(-826.7 0.0091512 0.280228)
(-376.791 0.00131609 0.262464)
(-79.2707 0.00292588 0.494962)
(674.78 0.00452931 0.160327)
(664.134 0.00611396 -0.193868)
(-54.7832 0.00764983 -1.27101)
(-827.945 0.00921276 0.27246)
(-377.123 0.00132477 0.266075)
(-79.8201 0.00294511 0.506549)
(675.779 0.00455918 0.166264)
(665.254 0.00615451 -0.197245)
(-54.8168 0.00770095 -1.27806)
(-829.243 0.00927434 0.266409)
(-377.497 0.00133346 0.268138)
(-80.3554 0.00296436 0.512462)
(676.849 0.00458908 0.169342)
(666.445 0.00619505 -0.197993)
(-54.8347 0.00775205 -1.27906)
(-830.571 0.00933593 0.263048)
(-377.89 0.00134216 0.26835)
(-80.8834 0.00298364 0.513051)
(677.935 0.00461898 0.170481)
(667.656 0.00623556 -0.196374)
(-54.8391 0.0078031 -1.2748)
(-831.909 0.0093975 0.261726)
(-378.289 0.00135087 0.26766)
(-81.412 0.00300294 0.511363)
(679.015 0.00464889 0.170537)
(668.859 0.00627607 -0.194542)
(-54.8408 0.00785413 -1.26901)
(-833.245 0.00945905 0.261258)
(-378.69 0.00135959 0.266761)
(-81.9422 0.00302225 0.509346)
(680.09 0.00467879 0.17032)
(670.054 0.00631657 -0.193189)
(-54.8441 0.00790514 -1.26362)
(-834.578 0.0095206 0.260945)
(-379.091 0.00136832 0.265839)
(-82.4732 0.00304156 0.50739)
(681.165 0.0047087 0.170023)
(671.247 0.00635707 -0.192179)
(-54.8495 0.00795616 -1.2587)
(-835.907 0.00958214 0.260588)
(-379.492 0.00137704 0.264925)
(-83.0043 0.00306088 0.505468)
(682.24 0.00473861 0.169704)
(672.437 0.00639757 -0.191282)
(-54.857 0.00800717 -1.25399)
(-837.234 0.00964369 0.260214)
(-379.892 0.00138576 0.264012)