/*--------------------------------*- C++ -*----------------------------------*\
| =========                 |                                                 |
| \\      /  F ield         | OpenFOAM: The Open Source CFD Toolbox           |
|  \\    /   O peration     | Version:  2206                                  |
|   \\  /    A nd           | Website:  www.openfoam.com                      |
|    \\/     M anipulation  |                                                 |
\*---------------------------------------------------------------------------*/
FoamFile
{
    version     2.0;
    format      ascii;
    arch        "LSB;label=32;scalar=64";
    class       volScalarField;
    location    "3000";
    object      p;
}
// * * * * * * * * * * * * * * * * * * * * * * * * * * * * * * * * * * * * * //

dimensions      [0 2 -2 0 0 0 0];

internalField   nonuniform List<scalar> 
100
(
-1.49653529e-09
0.0390047854
0.0573327333
0.0748306763
0.0885426989
0.0999353405
0.109427093
0.117425452
0.124225685
0.130054597
0.135087853
0.139463274
0.143290182
0.146656181
0.149632121
0.152275797
0.154634723
0.156748251
0.158649188
0.16036506
0.161919098
0.163331014
0.164617623
0.165793333
0.166870552
0.167860008
0.168771012
0.169611679
0.170389108
0.171109528
0.171778423
0.172400637
0.17298046
0.173521704
0.174027764
0.174501671
0.174946139
0.175363603
0.175756251
0.176126058
0.176474805
0.176804106
0.177115422
0.177410081
0.177689292
0.177954156
0.178205679
0.17844478
0.178672301
0.178889015
0.179095631
0.179292802
0.179481129
0.179661166
0.179833425
0.17999838
0.180156468
0.180308096
0.180453639
0.180593449
0.18072785
0.180857145
0.180981615
0.181101524
0.181217118
0.181328625
0.18143626
0.181540224
0.181640705
0.181737879
0.181831912
0.181922958
0.182011165
0.182096668
0.182179598
0.182260077
0.182338218
0.18241413
0.182487915
0.18255967
0.182629485
0.182697448
0.182763639
0.182828135
0.182891011
0.182952335
0.183012173
0.183070588
0.183127638
0.18318338
0.183237869
0.183291156
0.183343289
0.183394299
0.183444196
0.183493094
0.183541565
0.183590171
0.183634887
0.183660805
)
;

boundaryField
{
    left
    {
        type            wedge;
    }
    right
    {
        type            wedge;
    }
    outerWall
    {
        type            zeroGradient;
    }
    innerWall
    {
        type            zeroGradient;
    }
    frontAndBack
    {
        type            empty;
    }
}


// ************************************************************************* //
