/*--------------------------------*- C++ -*----------------------------------*\
| =========                 |                                                 |
| \\      /  F ield         | OpenFOAM: The Open Source CFD Toolbox           |
|  \\    /   O peration     | Version:  2206                                  |
|   \\  /    A nd           | Website:  www.openfoam.com                      |
|    \\/     M anipulation  |                                                 |
\*---------------------------------------------------------------------------*/
FoamFile
{
    version     2.0;
    format      ascii;
    arch        "LSB;label=32;scalar=64";
    class       surfaceScalarField;
    location    "3000";
    object      phi;
}
// * * * * * * * * * * * * * * * * * * * * * * * * * * * * * * * * * * * * * //

dimensions      [0 3 -1 0 0 0 0];

oriented        oriented;

internalField   nonuniform List<scalar> 
99
(
2.69986035e-10
5.18806133e-10
7.49214261e-10
9.63767743e-10
1.16447138e-09
1.35298886e-09
1.53068851e-09
1.69873407e-09
1.85809787e-09
2.00962896e-09
2.15404091e-09
2.29197445e-09
2.42396656e-09
2.55051468e-09
2.67203044e-09
2.78891071e-09
2.90147537e-09
3.01004828e-09
3.11488004e-09
3.21624171e-09
3.31433004e-09
3.40937669e-09
3.50153545e-09
3.59100923e-09
3.67791689e-09
3.76243958e-09
3.84466669e-09
3.92476421e-09
4.00279647e-09
4.07891791e-09
4.15317095e-09
4.22570277e-09
4.29653633e-09
4.36581365e-09
4.43354e-09
4.49985518e-09
4.56474842e-09
4.62835832e-09
4.69065909e-09
4.7517904e-09
4.81171248e-09
4.87056653e-09
4.92829948e-09
4.9850557e-09
5.04076959e-09
5.09558876e-09
5.14943562e-09
5.2024623e-09
5.25457967e-09
5.30594446e-09
5.3564566e-09
5.40627771e-09
5.45529748e-09
5.50368228e-09
5.55131269e-09
5.59835915e-09
5.64469384e-09
5.69049148e-09
5.73561763e-09
5.7802487e-09
5.8242448e-09
5.86778445e-09
5.91072511e-09
5.95324313e-09
5.99519463e-09
6.03675521e-09
6.07778228e-09
6.11844542e-09
6.15860461e-09
6.19842541e-09
6.23777224e-09
6.27680261e-09
6.31538563e-09
6.35367373e-09
6.39154136e-09
6.42913257e-09
6.46632667e-09
6.5032629e-09
6.53982605e-09
6.57614684e-09
6.61211517e-09
6.64785679e-09
6.68326922e-09
6.71846637e-09
6.75335531e-09
6.78804005e-09
6.82244121e-09
6.8566451e-09
6.89058761e-09
6.9243403e-09
6.95785581e-09
6.99118572e-09
7.02429977e-09
7.0572335e-09
7.08997188e-09
7.12253597e-09
7.15492259e-09
7.1871412e-09
7.21919978e-09
)
;

boundaryField
{
    left
    {
        type            wedge;
        value           nonuniform List<scalar> 
100
(
1.34052924e-05
1.23544741e-05
1.14403939e-05
1.06530324e-05
9.96549729e-06
9.36025485e-06
8.82330269e-06
8.34374366e-06
7.91289001e-06
7.52372308e-06
7.17051202e-06
6.84853116e-06
6.55384881e-06
6.28316792e-06
6.03370255e-06
5.80308204e-06
5.58927757e-06
5.39054166e-06
5.20536099e-06
5.03241939e-06
4.87056586e-06
4.71878939e-06
4.57619919e-06
4.44200649e-06
4.31551034e-06
4.19608647e-06
4.08317637e-06
3.97627882e-06
3.87494345e-06
3.77876375e-06
3.68737187e-06
3.60043477e-06
3.51764959e-06
3.43874026e-06
3.36345525e-06
3.29156432e-06
3.22285624e-06
3.15713754e-06
3.09422999e-06
3.03396953e-06
2.97620451e-06
2.92079514e-06
2.86761184e-06
2.81653429e-06
2.76745119e-06
2.72025887e-06
2.67486066e-06
2.63116683e-06
2.58909347e-06
2.54856202e-06
2.50949935e-06
2.47183682e-06
2.43550993e-06
2.40045848e-06
2.36662576e-06
2.33395834e-06
2.30240621e-06
2.27192212e-06
2.24246141e-06
2.21398219e-06
2.1864448e-06
2.15981159e-06
2.13404723e-06
2.10911811e-06
2.08499247e-06
2.06164002e-06
2.0390323e-06
2.01714216e-06
1.99594366e-06
1.97541242e-06
1.95552511e-06
1.9362594e-06
1.91759428e-06
1.89950958e-06
1.88198597e-06
1.86500523e-06
1.84854985e-06
1.832603e-06
1.8171488e-06
1.80217197e-06
1.78765776e-06
1.7735923e-06
1.75996217e-06
1.74675441e-06
1.73395681e-06
1.72155756e-06
1.70954519e-06
1.69790894e-06
1.6866383e-06
1.67572327e-06
1.66515405e-06
1.65492148e-06
1.64501659e-06
1.63543064e-06
1.6261554e-06
1.61718274e-06
1.60850451e-06
1.60011272e-06
1.59199884e-06
1.58415219e-06
)
;
    }
    right
    {
        type            wedge;
        value           nonuniform List<scalar> 
100
(
-1.34055623e-05
-1.23547229e-05
-1.14406243e-05
-1.06532469e-05
-9.96569799e-06
-9.36044337e-06
-8.82348039e-06
-8.3439117e-06
-7.91304937e-06
-7.5238746e-06
-7.17065643e-06
-6.84866909e-06
-6.5539808e-06
-6.28329447e-06
-6.03382406e-06
-5.80319892e-06
-5.58939014e-06
-5.39065023e-06
-5.20546583e-06
-5.03252075e-06
-4.87066395e-06
-4.71888443e-06
-4.57629136e-06
-4.44209596e-06
-4.31559725e-06
-4.19617098e-06
-4.08325861e-06
-3.9763589e-06
-3.87502149e-06
-3.77883986e-06
-3.68744613e-06
-3.60050729e-06
-3.51772044e-06
-3.43880952e-06
-3.36352299e-06
-3.29163061e-06
-3.22292115e-06
-3.15720112e-06
-3.09429231e-06
-3.03403064e-06
-2.97626445e-06
-2.92085396e-06
-2.86766959e-06
-2.81659102e-06
-2.76750693e-06
-2.72031365e-06
-2.67491453e-06
-2.63121982e-06
-2.58914561e-06
-2.54861335e-06
-2.50954989e-06
-2.47188661e-06
-2.43555898e-06
-2.40050682e-06
-2.36667343e-06
-2.33400535e-06
-2.30245258e-06
-2.27196788e-06
-2.24250657e-06
-2.21402678e-06
-2.18648884e-06
-2.15985509e-06
-2.13409021e-06
-2.10916059e-06
-2.08503446e-06
-2.06168154e-06
-2.03907337e-06
-2.01718278e-06
-1.99598385e-06
-1.9754522e-06
-1.95556449e-06
-1.9362984e-06
-1.9176329e-06
-1.89954784e-06
-1.88202387e-06
-1.86504279e-06
-1.84858708e-06
-1.83263991e-06
-1.81718539e-06
-1.80220826e-06
-1.78769376e-06
-1.77362802e-06
-1.75999762e-06
-1.74678959e-06
-1.73399173e-06
-1.72159223e-06
-1.70957962e-06
-1.69794313e-06
-1.68667227e-06
-1.67575701e-06
-1.66518759e-06
-1.65495481e-06
-1.64504972e-06
-1.63546358e-06
-1.62618815e-06
-1.61721531e-06
-1.60853691e-06
-1.60014494e-06
-1.5920309e-06
-1.58418409e-06
)
;
    }
    outerWall
    {
        type            calculated;
        value           uniform 7.25110452e-09;
    }
    innerWall
    {
        type            calculated;
        value           uniform 0;
    }
    frontAndBack
    {
        type            empty;
        value           nonuniform List<scalar> 0();
    }
}


// ************************************************************************* //
