/*--------------------------------*- C++ -*----------------------------------*\
| =========                 |                                                 |
| \\      /  F ield         | OpenFOAM: The Open Source CFD Toolbox           |
|  \\    /   O peration     | Version:  2206                                  |
|   \\  /    A nd           | Website:  www.openfoam.com                      |
|    \\/     M anipulation  |                                                 |
\*---------------------------------------------------------------------------*/
FoamFile
{
    version     2.0;
    format      ascii;
    arch        "LSB;label=32;scalar=64";
    class       volVectorField;
    location    "3000";
    object      U;
}
// * * * * * * * * * * * * * * * * * * * * * * * * * * * * * * * * * * * * * //

dimensions      [0 1 -1 0 0 0 0];

internalField   nonuniform List<vector> 
100
(
(0.0121916225 0.595802771 0)
(-0.00388511258 0.549098798 0)
(0.000914338184 0.508472189 0)
(-0.000147049497 0.473477641 0)
(8.19356603e-05 0.442919911 0)
(6.42244818e-05 0.416019705 0)
(8.08544555e-05 0.392154684 0)
(9.04142954e-05 0.370840519 0)
(9.84950211e-05 0.351691083 0)
(0.000104978026 0.334394427 7.34805326e-20)
(0.000110224276 0.318695841 -7.75708617e-20)
(0.000114459382 0.304385291 0)
(0.000117868274 0.291288038 0)
(0.000120597161 0.279257534 8.71103167e-20)
(0.000122763039 0.268169954 0)
(0.000124460405 0.257919953 0)
(0.000125766126 0.248417341 0)
(0.00012674321 0.239584451 0)
(0.000127443576 0.231354038 0)
(0.000127910327 0.22366759 0)
(0.000128179358 0.21647395 0)
(0.000128280778 0.209728198 0)
(0.000128239876 0.203390728 0)
(0.000128078068 0.197426484 0)
(0.000127813473 0.191804323 0)
(0.000127461547 0.186496489 0)
(0.000127035434 0.181478157 0)
(0.000126546438 0.176727064 0)
(0.000126004218 0.172223178 0)
(0.000125417117 0.167948435 0)
(0.000124792285 0.163886496 0)
(0.000124135948 0.160022547 0)
(0.000123453447 0.156343128 0)
(0.000122749449 0.152835979 0)
(0.00012202796 0.149489912 0)
(0.000121292506 0.146294691 0)
(0.000120546112 0.143240941 0)
(0.000119791446 0.140320051 0)
(0.000119030788 0.137524103 0)
(0.000118266169 0.134845804 0)
(0.000117499316 0.132278421 0)
(0.000116731769 0.129815732 0)
(0.000115964829 0.12745198 0)
(0.000115199668 0.125181824 0)
(0.000114437266 0.123000309 0)
(0.000113678508 0.120902827 0)
(0.00011292412 0.118885091 0)
(0.00011217477 0.116943104 0)
(0.000111430997 0.115073136 0)
(0.000110693296 0.113271705 0)
(0.000109962058 0.111535552 0)
(0.000109237644 0.109861625 0)
(0.000108520329 0.108247066 0)
(0.000107810372 0.106689193 0)
(0.000107107961 0.105185484 0)
(0.000106413271 0.103733572 0)
(0.000105726419 0.102331226 0)
(0.000105047518 0.100976349 0)
(0.000104376643 0.0996669594 0)
(0.000103713847 0.098401191 0)
(0.000103059158 0.0971772801 0)
(0.000102412592 0.0959935601 0)
(0.000101774162 0.0948484545 0)
(0.000101143843 0.0937404713 0)
(0.000100521611 0.0926681969 0)
(9.99074251e-05 0.0916302914 0)
(9.93012641e-05 0.0906254836 7.31700573e-20)
(9.87030543e-05 0.0896525666 0)
(9.81127439e-05 0.0887103941 0)
(9.75302553e-05 0.0877978761 0)
(9.69555422e-05 0.086913976 0)
(9.63885055e-05 0.086057707 6.991408e-20)
(9.58290771e-05 0.0852281292 0)
(9.52771627e-05 0.0844243469 0)
(9.47327016e-05 0.0836455059 0)
(9.41955839e-05 0.0828907912 -6.74590311e-20)
(9.36657293e-05 0.0821594246 0)
(9.31430366e-05 0.081450663 0)
(9.26274368e-05 0.0807637958 0)
(9.21188148e-05 0.0800981437 0)
(9.16170835e-05 0.0794530567 0)
(9.11221397e-05 0.0788279125 0)
(9.06339185e-05 0.0782221151 0)
(9.01522986e-05 0.0776350934 -6.29348964e-20)
(8.96772017e-05 0.0770662998 0)
(8.92085185e-05 0.076515209 0)
(8.87462087e-05 0.075981317 0)
(8.82901577e-05 0.0754641398 6.08553039e-20)
(8.78402175e-05 0.0749632125 0)
(8.73959571e-05 0.0744780884 0)
(8.69574184e-05 0.0740083378 0)
(8.65278902e-05 0.0735535475 5.8889082e-20)
(8.61145743e-05 0.0731133197 0)
(8.57003721e-05 0.0726872706 0)
(8.5171544e-05 0.0722750294 0)
(8.44263975e-05 0.0718762346 5.70296511e-20)
(8.43625792e-05 0.0714905296 0)
(8.81590594e-05 0.0711175535 0)
(9.43637571e-05 0.0707569277 0)
(6.85895589e-05 0.0704081822 0)
)
;

boundaryField
{
    left
    {
        type            wedge;
    }
    right
    {
        type            wedge;
    }
    outerWall
    {
        type            navierSlip;
        value           uniform (0 0.0702503811 0);
        slipLength      uniform 1;
        wallVelocity    uniform (0 0 0);
    }
    innerWall
    {
        type            rotatingWallVelocity;
        origin          (0 0 0);
        axis            (0 0 1);
        omega           constant 12.566;
        value           uniform (0 0.628204307 -0);
    }
    frontAndBack
    {
        type            empty;
    }
}


// ************************************************************************* //
