/*--------------------------------*- C++ -*----------------------------------*\
| =========                 |                                                 |
| \\      /  F ield         | OpenFOAM: The Open Source CFD Toolbox           |
|  \\    /   O peration     | Version:  2206                                  |
|   \\  /    A nd           | Website:  www.openfoam.com                      |
|    \\/     M anipulation  |                                                 |
\*---------------------------------------------------------------------------*/
FoamFile
{
    version     2.0;
    format      ascii;
    arch        "LSB;label=32;scalar=64";
    class       volScalarField;
    location    "90";
    object      p;
}
// * * * * * * * * * * * * * * * * * * * * * * * * * * * * * * * * * * * * * //

dimensions      [0 2 -2 0 0 0 0];

internalField   nonuniform List<scalar> 
50000
(
-2.5074e-10
4.29453e-09
9.88375e-09
1.6872e-08
2.51674e-08
3.55073e-08
4.7701e-08
6.1757e-08
7.76602e-08
9.55088e-08
1.1528e-07
1.36961e-07
1.60566e-07
1.86113e-07
2.13579e-07
2.42994e-07
2.74333e-07
3.07622e-07
3.42841e-07
3.80008e-07
4.19109e-07
4.6016e-07
5.03147e-07
5.48083e-07
5.94958e-07
6.43782e-07
6.94547e-07
7.47259e-07
8.01915e-07
8.58518e-07
9.17064e-07
9.77559e-07
1.04e-06
1.10439e-06
1.17072e-06
1.239e-06
1.30922e-06
1.3814e-06
1.45552e-06
1.53158e-06
1.6096e-06
1.68956e-06
1.77147e-06
1.85532e-06
1.94113e-06
2.02888e-06
2.11858e-06
2.21022e-06
2.30382e-06
2.39936e-06
2.49685e-06
2.59629e-06
2.69767e-06
2.80101e-06
2.90629e-06
3.01352e-06
3.12269e-06
3.23382e-06
3.34689e-06
3.46192e-06
3.57888e-06
3.6978e-06
3.81867e-06
3.94148e-06
4.06625e-06
4.19296e-06
4.32161e-06
4.45222e-06
4.58478e-06
4.71928e-06
4.85573e-06
4.99413e-06
5.13448e-06
5.27678e-06
5.42103e-06
5.56722e-06
5.71536e-06
5.86545e-06
6.01749e-06
6.17148e-06
6.32741e-06
6.4853e-06
6.64513e-06
6.80691e-06
6.97064e-06
7.13632e-06
7.30395e-06
7.47352e-06
7.64505e-06
7.81852e-06
7.99394e-06
8.17131e-06
8.35063e-06
8.53189e-06
8.71511e-06
8.90027e-06
9.08739e-06
9.27645e-06
9.46746e-06
9.66041e-06
9.85532e-06
1.00522e-05
1.0251e-05
1.04517e-05
1.06544e-05
1.08591e-05
1.10657e-05
1.12742e-05
1.14847e-05
1.16972e-05
1.19116e-05
1.21279e-05
1.23462e-05
1.25664e-05
1.27886e-05
1.30127e-05
1.32388e-05
1.34669e-05
1.36968e-05
1.39288e-05
1.41627e-05
1.43985e-05
1.46363e-05
1.4876e-05
1.51177e-05
1.53613e-05
1.56069e-05
1.58544e-05
1.61038e-05
1.63553e-05
1.66086e-05
1.68639e-05
1.71212e-05
1.73804e-05
1.76416e-05
1.79047e-05
1.81697e-05
1.84367e-05
1.87057e-05
1.89766e-05
1.92495e-05
1.95243e-05
1.9801e-05
2.00797e-05
2.03604e-05
2.0643e-05
2.09275e-05
2.1214e-05
2.15024e-05
2.17928e-05
2.20852e-05
2.23795e-05
2.26757e-05
2.29739e-05
2.3274e-05
2.35761e-05
2.38801e-05
2.41861e-05
2.4494e-05
2.48039e-05
2.51157e-05
2.54295e-05
2.57452e-05
2.60629e-05
2.63825e-05
2.67041e-05
2.70276e-05
2.73531e-05
2.76805e-05
2.80099e-05
2.83412e-05
2.86745e-05
2.90097e-05
2.93468e-05
2.96859e-05
3.0027e-05
3.037e-05
3.0715e-05
3.10619e-05
3.14107e-05
3.17615e-05
3.21143e-05
3.2469e-05
3.28256e-05
3.31842e-05
3.35448e-05
3.39072e-05
3.42717e-05
3.46381e-05
3.50064e-05
3.53767e-05
3.57489e-05
3.61231e-05
3.64993e-05
3.68774e-05
3.72574e-05
3.76394e-05
3.80233e-05
3.84092e-05
3.8797e-05
3.91868e-05
3.95785e-05
3.99722e-05
4.03678e-05
4.07654e-05
4.11649e-05
4.15664e-05
4.19698e-05
4.23752e-05
4.27825e-05
4.31917e-05
4.3603e-05
4.40161e-05
4.44312e-05
4.48483e-05
4.52673e-05
4.56882e-05
4.61112e-05
4.6536e-05
4.69628e-05
4.73916e-05
4.78223e-05
4.82549e-05
4.86895e-05
4.91261e-05
4.95646e-05
5.0005e-05
5.04474e-05
5.08917e-05
5.1338e-05
5.17863e-05
5.22365e-05
5.26886e-05
5.31427e-05
5.35987e-05
5.40567e-05
5.45166e-05
5.49785e-05
5.54423e-05
5.59081e-05
5.63759e-05
5.68455e-05
5.73172e-05
5.77907e-05
5.82663e-05
5.87437e-05
5.92231e-05
5.97045e-05
6.01878e-05
6.06731e-05
6.11603e-05
6.16495e-05
6.21406e-05
6.26337e-05
6.31287e-05
6.36256e-05
6.41245e-05
6.46254e-05
6.51282e-05
6.5633e-05
6.61397e-05
6.66483e-05
6.71589e-05
6.76715e-05
6.8186e-05
6.87024e-05
6.92208e-05
6.97412e-05
7.02634e-05
7.07877e-05
7.13139e-05
7.1842e-05
7.23721e-05
7.29041e-05
7.34381e-05
7.39741e-05
7.4512e-05
7.50518e-05
7.55936e-05
7.61373e-05
7.6683e-05
7.72306e-05
7.77802e-05
7.83317e-05
7.88852e-05
7.94406e-05
7.9998e-05
8.05573e-05
8.11186e-05
8.16818e-05
8.2247e-05
8.28141e-05
8.33831e-05
8.39542e-05
8.45271e-05
8.5102e-05
8.56789e-05
8.62577e-05
8.68385e-05
8.74212e-05
8.80058e-05
8.85924e-05
8.9181e-05
8.97715e-05
9.03639e-05
9.09583e-05
9.15547e-05
9.2153e-05
9.27532e-05
9.33554e-05
9.39596e-05
9.45656e-05
9.51737e-05
9.57837e-05
9.63956e-05
9.70095e-05
9.76253e-05
9.82431e-05
9.88629e-05
9.94845e-05
0.000100108
0.000100734
0.000101361
0.000101991
0.000102622
0.000103256
0.000103891
0.000104528
0.000105167
0.000105809
0.000106452
0.000107097
0.000107744
0.000108393
0.000109044
0.000109696
0.000110351
0.000111008
0.000111667
0.000112327
0.00011299
0.000113655
0.000114321
0.00011499
0.00011566
0.000116332
0.000117007
0.000117683
0.000118361
0.000119041
0.000119723
0.000120407
0.000121093
0.000121781
0.000122471
0.000123163
0.000123857
0.000124553
0.00012525
0.00012595
0.000126651
0.000127355
0.00012806
0.000128768
0.000129477
0.000130189
0.000130902
0.000131617
0.000132334
0.000133053
0.000133774
0.000134497
0.000135222
0.000135949
0.000136678
0.000137409
0.000138142
0.000138877
0.000139613
0.000140352
0.000141092
0.000141835
0.000142579
0.000143326
0.000144074
0.000144824
0.000145577
0.000146331
0.000147087
0.000147845
0.000148605
0.000149367
0.000150131
0.000150897
0.000151665
0.000152435
0.000153206
0.00015398
0.000154756
0.000155533
0.000156313
0.000157094
0.000157878
0.000158663
0.00015945
0.00016024
0.000161031
0.000161824
0.000162619
0.000163416
0.000164215
0.000165016
0.000165819
0.000166624
0.000167431
0.00016824
0.00016905
0.000169863
0.000170678
0.000171494
0.000172313
0.000173133
0.000173956
0.00017478
0.000175606
0.000176435
0.000177265
0.000178097
0.000178931
0.000179767
0.000180605
0.000181445
0.000182287
0.000183131
0.000183977
0.000184824
0.000185674
0.000186526
0.000187379
0.000188235
0.000189092
0.000189952
0.000190813
0.000191676
0.000192542
0.000193409
0.000194278
0.000195149
0.000196022
0.000196897
0.000197774
0.000198653
0.000199534
0.000200417
0.000201302
0.000202188
0.000203077
0.000203968
0.00020486
0.000205755
0.000206651
0.00020755
0.00020845
0.000209352
0.000210257
0.000211163
0.000212071
0.000212981
0.000213893
0.000214807
0.000215723
0.000216641
0.000217561
0.000218483
0.000219406
0.000220332
0.00022126
0.000222189
0.000223121
0.000224054
0.00022499
0.000225927
0.000226867
0.000227808
0.000228751
0.000229696
0.000230643
0.000231592
0.000232544
0.000233496
0.000234451
0.000235408
0.000236367
0.000237328
0.000238291
0.000239255
0.000240222
0.00024119
0.000242161
0.000243133
0.000244108
0.000245084
0.000246063
0.000247043
0.000248025
0.000249009
0.000249995
0.000250983
0.000251973
0.000252965
0.000253959
0.000254955
0.000255953
0.000256953
0.000257954
0.000258958
0.000259964
0.000260971
0.000261981
0.000262992
0.000264005
0.000265021
0.000266038
0.000267057
0.000268079
0.000269102
0.000270127
0.000271154
0.000272183
0.000273214
0.000274247
0.000275281
0.000276318
0.000277357
0.000278398
0.00027944
0.000280485
0.000281531
0.00028258
0.00028363
0.000284683
0.000285737
0.000286793
0.000287851
0.000288912
0.000289974
0.000291038
0.000292104
0.000293172
0.000294242
0.000295313
0.000296387
0.000297463
0.000298541
0.00029962
0.000300702
0.000301786
0.000302871
0.000303959
0.000305048
0.000306139
0.000307233
0.000308328
0.000309425
0.000310524
0.000311625
0.000312728
0.000313833
0.00031494
0.000316049
0.00031716
0.000318273
0.000319387
0.000320504
0.000321623
0.000322743
0.000323866
0.00032499
0.000326117
0.000327245
0.000328375
0.000329508
0.000330642
0.000331778
0.000332916
0.000334056
0.000335198
0.000336342
0.000337488
0.000338636
0.000339786
0.000340938
0.000342091
0.000343247
0.000344405
0.000345564
0.000346726
0.000347889
0.000349054
0.000350222
0.000351391
0.000352562
0.000353736
0.000354911
0.000356088
0.000357267
0.000358448
0.000359631
0.000360816
0.000362003
0.000363191
0.000364382
0.000365575
0.000366769
0.000367966
0.000369164
0.000370365
0.000371567
0.000372772
0.000373978
0.000375186
0.000376397
0.000377609
0.000378823
0.000380039
0.000381257
0.000382477
0.000383699
0.000384923
0.000386149
0.000387376
0.000388606
0.000389838
0.000391071
0.000392307
0.000393544
0.000394784
0.000396025
0.000397269
0.000398514
0.000399761
0.00040101
0.000402261
0.000403515
0.00040477
0.000406027
0.000407286
0.000408546
0.000409809
0.000411074
0.000412341
0.000413609
0.00041488
0.000416153
0.000417427
0.000418704
0.000419982
0.000421263
0.000422545
0.000423829
0.000425115
0.000426404
0.000427694
0.000428986
0.00043028
0.000431576
0.000432874
0.000434174
0.000435475
0.000436779
0.000438085
0.000439393
0.000440702
0.000442014
0.000443327
0.000444643
0.00044596
0.000447279
0.000448601
0.000449924
0.000451249
0.000452576
0.000453905
0.000455236
0.000456569
0.000457904
0.000459241
0.00046058
0.000461921
0.000463264
0.000464608
0.000465955
0.000467304
0.000468654
0.000470007
0.000471361
0.000472717
0.000474076
0.000475436
0.000476798
0.000478163
0.000479529
0.000480897
0.000482267
0.000483639
0.000485013
0.000486389
0.000487766
0.000489146
0.000490528
0.000491912
0.000493297
0.000494685
0.000496074
0.000497466
0.000498859
0.000500254
0.000501652
0.000503051
0.000504452
0.000505855
0.00050726
0.000508668
0.000510077
0.000511488
0.0005129
0.000514315
0.000515732
0.000517151
0.000518571
0.000519994
0.000521419
0.000522845
0.000524274
0.000525704
0.000527137
0.000528571
0.000530007
0.000531445
0.000532886
0.000534328
0.000535772
0.000537218
0.000538666
0.000540116
0.000541568
0.000543022
0.000544477
0.000545935
0.000547395
0.000548856
0.00055032
0.000551785
0.000553253
0.000554722
0.000556194
0.000557667
0.000559142
0.000560619
0.000562099
0.00056358
0.000565063
0.000566548
0.000568035
0.000569524
0.000571014
0.000572507
0.000574002
0.000575499
0.000576997
0.000578498
0.000580001
0.000581505
0.000583011
0.00058452
0.00058603
0.000587542
0.000589057
0.000590573
0.000592091
0.000593611
0.000595133
0.000596657
0.000598183
0.000599711
0.000601241
0.000602773
0.000604306
0.000605842
0.00060738
0.000608919
0.000610461
0.000612004
0.00061355
0.000615097
0.000616646
0.000618198
0.000619751
0.000621306
0.000622863
0.000624422
0.000625983
0.000627546
0.000629111
0.000630678
0.000632247
0.000633817
0.00063539
0.000636965
0.000638541
0.00064012
0.0006417
0.000643283
0.000644867
0.000646454
0.000648042
0.000649632
0.000651224
0.000652818
0.000654415
0.000656013
0.000657613
0.000659215
0.000660818
0.000662424
0.000664032
0.000665642
0.000667253
0.000668867
0.000670483
0.0006721
0.00067372
0.000675341
0.000676964
0.00067859
0.000680217
0.000681846
0.000683477
0.000685111
0.000686746
0.000688383
0.000690022
0.000691663
0.000693305
0.00069495
0.000696597
0.000698246
0.000699896
0.000701549
0.000703203
0.00070486
0.000706518
0.000708179
0.000709841
0.000711505
0.000713172
0.00071484
0.00071651
0.000718182
0.000719856
0.000721532
0.00072321
0.00072489
0.000726572
0.000728256
0.000729941
0.000731629
0.000733319
0.00073501
0.000736704
0.000738399
0.000740097
0.000741796
0.000743497
0.000745201
0.000746906
0.000748613
0.000750322
0.000752033
0.000753746
0.000755461
0.000757178
0.000758897
0.000760618
0.000762341
0.000764065
0.000765792
0.000767521
0.000769251
0.000770984
0.000772718
0.000774455
0.000776193
0.000777933
0.000779675
0.00078142
0.000783166
0.000784914
0.000786664
0.000788416
0.00079017
0.000791926
0.000793684
0.000795443
0.000797205
0.000798969
0.000800735
0.000802502
0.000804272
0.000806043
0.000807817
0.000809592
0.000811369
0.000813149
0.00081493
0.000816713
0.000818498
0.000820285
0.000822074
0.000823865
0.000825658
0.000827453
0.00082925
0.000831049
0.000832849
0.000834652
0.000836457
0.000838263
0.000840072
0.000841882
0.000843694
0.000845509
0.000847325
0.000849143
0.000850964
0.000852786
0.00085461
0.000856436
0.000858264
0.000860094
0.000861926
0.00086376
0.000865595
0.000867433
0.000869273
0.000871114
0.000872958
0.000874804
0.000876651
0.000878501
0.000880352
0.000882205
0.000884061
0.000885918
0.000887777
0.000889638
0.000891501
0.000893366
0.000895233
0.000897102
0.000898973
0.000900846
0.000902721
0.000904597
0.000906476
0.000908357
0.000910239
0.000912124
0.00091401
0.000915899
0.000917789
0.000919681
0.000921575
0.000923472
0.00092537
0.00092727
0.000929172
0.000931076
0.000932982
0.00093489
0.0009368
0.000938711
0.000940625
0.000942541
0.000944459
0.000946378
0.0009483
0.000950223
0.000952149
0.000954076
0.000956005
0.000957937
0.00095987
0.000961805
0.000963742
0.000965681
0.000967622
0.000969565
0.00097151
0.000973457
0.000975406
0.000977357
0.000979309
0.000981264
0.000983221
0.000985179
0.00098714
0.000989102
0.000991067
0.000993033
0.000995001
0.000996972
0.000998944
0.00100092
0.00100289
0.00100487
0.00100685
0.00100883
0.00101082
0.0010128
0.00101479
0.00101678
0.00101877
0.00102077
0.00102276
0.00102476
0.00102676
0.00102876
0.00103076
0.00103277
0.00103478
0.00103679
0.0010388
0.00104081
0.00104283
0.00104484
0.00104686
0.00104888
0.00105091
0.00105293
0.00105496
0.00105699
0.00105902
0.00106105
0.00106308
0.00106512
0.00106716
0.0010692
0.00107124
0.00107329
0.00107533
0.00107738
0.00107943
0.00108148
0.00108354
0.00108559
0.00108765
0.00108971
0.00109177
0.00109384
0.0010959
0.00109797
0.00110004
0.00110211
0.00110418
0.00110626
0.00110834
0.00111042
0.0011125
0.00111458
0.00111667
0.00111875
0.00112084
0.00112293
0.00112503
0.00112712
0.00112922
0.00113132
0.00113342
0.00113552
0.00113763
0.00113973
0.00114184
0.00114395
0.00114606
0.00114818
0.0011503
0.00115241
0.00115453
0.00115666
0.00115878
0.00116091
0.00116304
0.00116517
0.0011673
0.00116943
0.00117157
0.0011737
0.00117584
0.00117799
0.00118013
0.00118228
0.00118442
0.00118657
0.00118872
0.00119088
0.00119303
0.00119519
0.00119735
0.00119951
0.00120167
0.00120384
0.00120601
0.00120818
0.00121035
0.00121252
0.00121469
0.00121687
0.00121905
0.00122123
0.00122341
0.0012256
0.00122778
0.00122997
0.00123216
0.00123436
0.00123655
0.00123875
0.00124095
0.00124315
0.00124535
0.00124755
0.00124976
0.00125197
0.00125418
0.00125639
0.0012586
0.00126082
0.00126304
0.00126525
0.00126748
0.0012697
0.00127193
0.00127415
0.00127638
0.00127861
0.00128085
0.00128308
0.00128532
0.00128756
0.0012898
0.00129204
0.00129429
0.00129654
0.00129878
0.00130104
0.00130329
0.00130554
0.0013078
0.00131006
0.00131232
0.00131458
0.00131685
0.00131911
0.00132138
0.00132365
0.00132592
0.0013282
0.00133047
0.00133275
0.00133503
0.00133731
0.0013396
0.00134188
0.00134417
0.00134646
0.00134875
0.00135105
0.00135334
0.00135564
0.00135794
0.00136024
0.00136255
0.00136485
0.00136716
0.00136947
0.00137178
0.00137409
0.00137641
0.00137873
0.00138104
0.00138337
0.00138569
0.00138801
0.00139034
0.00139267
0.001395
0.00139733
0.00139967
0.001402
0.00140434
0.00140668
0.00140903
0.00141137
0.00141372
0.00141606
0.00141842
0.00142077
0.00142312
0.00142548
0.00142784
0.0014302
0.00143256
0.00143492
0.00143729
0.00143966
0.00144203
0.0014444
0.00144677
0.00144915
0.00145152
0.0014539
0.00145628
0.00145867
0.00146105
0.00146344
0.00146583
0.00146822
0.00147061
0.00147301
0.00147541
0.00147781
0.00148021
0.00148261
0.00148501
0.00148742
0.00148983
0.00149224
0.00149465
0.00149707
0.00149948
0.0015019
0.00150432
0.00150675
0.00150917
0.0015116
0.00151402
0.00151645
0.00151889
0.00152132
0.00152376
0.00152619
0.00152863
0.00153108
0.00153352
0.00153597
0.00153841
0.00154086
0.00154332
0.00154577
0.00154822
0.00155068
0.00155314
0.0015556
0.00155807
0.00156053
0.001563
0.00156547
0.00156794
0.00157041
0.00157289
0.00157536
0.00157784
0.00158032
0.00158281
0.00158529
0.00158778
0.00159027
0.00159276
0.00159525
0.00159774
0.00160024
0.00160274
0.00160524
0.00160774
0.00161025
0.00161275
0.00161526
0.00161777
0.00162028
0.0016228
0.00162531
0.00162783
0.00163035
0.00163287
0.0016354
0.00163792
0.00164045
0.00164298
0.00164551
0.00164804
0.00165058
0.00165312
0.00165566
0.0016582
0.00166074
0.00166329
0.00166583
0.00166838
0.00167093
0.00167349
0.00167604
0.0016786
0.00168116
0.00168372
0.00168628
0.00168884
0.00169141
0.00169398
0.00169655
0.00169912
0.0017017
0.00170427
0.00170685
0.00170943
0.00171201
0.0017146
0.00171718
0.00171977
0.00172236
0.00172495
0.00172755
0.00173014
0.00173274
0.00173534
0.00173794
0.00174055
0.00174315
0.00174576
0.00174837
0.00175098
0.00175359
0.00175621
0.00175883
0.00176145
0.00176407
0.00176669
0.00176931
0.00177194
0.00177457
0.0017772
0.00177983
0.00178247
0.00178511
0.00178774
0.00179039
0.00179303
0.00179567
0.00179832
0.00180097
0.00180362
0.00180627
0.00180892
0.00181158
0.00181424
0.0018169
0.00181956
0.00182223
0.00182489
0.00182756
0.00183023
0.0018329
0.00183557
0.00183825
0.00184093
0.00184361
0.00184629
0.00184897
0.00185166
0.00185435
0.00185704
0.00185973
0.00186242
0.00186512
0.00186781
0.00187051
0.00187321
0.00187592
0.00187862
0.00188133
0.00188404
0.00188675
0.00188946
0.00189217
0.00189489
0.00189761
0.00190033
0.00190305
0.00190578
0.0019085
0.00191123
0.00191396
0.00191669
0.00191943
0.00192217
0.0019249
0.00192764
0.00193039
0.00193313
0.00193588
0.00193862
0.00194137
0.00194412
0.00194688
0.00194963
0.00195239
0.00195515
0.00195791
0.00196068
0.00196344
0.00196621
0.00196898
0.00197175
0.00197452
0.0019773
0.00198007
0.00198285
0.00198563
0.00198842
0.0019912
0.00199399
0.00199678
0.00199957
0.00200236
0.00200516
0.00200795
0.00201075
0.00201355
0.00201635
0.00201916
0.00202196
0.00202477
0.00202758
0.0020304
0.00203321
0.00203603
0.00203884
0.00204166
0.00204449
0.00204731
0.00205013
0.00205296
0.00205579
0.00205862
0.00206146
0.00206429
0.00206713
0.00206997
0.00207281
0.00207565
0.0020785
0.00208135
0.0020842
0.00208705
0.0020899
0.00209276
0.00209561
0.00209847
0.00210133
0.0021042
0.00210706
0.00210993
0.0021128
0.00211567
0.00211854
0.00212141
0.00212429
0.00212717
0.00213005
0.00213293
0.00213581
0.0021387
0.00214159
0.00214448
0.00214737
0.00215027
0.00215316
0.00215606
0.00215896
0.00216186
0.00216476
0.00216767
0.00217058
0.00217349
0.0021764
0.00217931
0.00218223
0.00218515
0.00218806
0.00219099
0.00219391
0.00219683
0.00219976
0.00220269
0.00220562
0.00220855
0.00221149
0.00221443
0.00221737
0.00222031
0.00222325
0.00222619
0.00222914
0.00223209
0.00223504
0.00223799
0.00224095
0.0022439
0.00224686
0.00224982
0.00225278
0.00225575
0.00225871
0.00226168
0.00226465
0.00226762
0.0022706
0.00227357
0.00227655
0.00227953
0.00228251
0.0022855
0.00228848
0.00229147
0.00229446
0.00229745
0.00230044
0.00230344
0.00230644
0.00230944
0.00231244
0.00231544
0.00231845
0.00232145
0.00232446
0.00232747
0.00233049
0.0023335
0.00233652
0.00233954
0.00234256
0.00234558
0.0023486
0.00235163
0.00235466
0.00235769
0.00236072
0.00236376
0.00236679
0.00236983
0.00237287
0.00237591
0.00237896
0.002382
0.00238505
0.0023881
0.00239115
0.00239421
0.00239726
0.00240032
0.00240338
0.00240644
0.0024095
0.00241257
0.00241564
0.00241871
0.00242178
0.00242485
0.00242793
0.002431
0.00243408
0.00243716
0.00244025
0.00244333
0.00244642
0.00244951
0.0024526
0.00245569
0.00245879
0.00246188
0.00246498
0.00246808
0.00247118
0.00247429
0.0024774
0.0024805
0.00248361
0.00248673
0.00248984
0.00249296
0.00249607
0.00249919
0.00250232
0.00250544
0.00250857
0.00251169
0.00251482
0.00251796
0.00252109
0.00252423
0.00252736
0.0025305
0.00253364
0.00253679
0.00253993
0.00254308
0.00254623
0.00254938
0.00255253
0.00255569
0.00255885
0.00256201
0.00256517
0.00256833
0.00257149
0.00257466
0.00257783
0.002581
0.00258417
0.00258735
0.00259052
0.0025937
0.00259688
0.00260007
0.00260325
0.00260644
0.00260963
0.00261282
0.00261601
0.0026192
0.0026224
0.0026256
0.0026288
0.002632
0.0026352
0.00263841
0.00264162
0.00264482
0.00264804
0.00265125
0.00265447
0.00265768
0.0026609
0.00266412
0.00266735
0.00267057
0.0026738
0.00267703
0.00268026
0.00268349
0.00268673
0.00268997
0.0026932
0.00269645
0.00269969
0.00270293
0.00270618
0.00270943
0.00271268
0.00271593
0.00271919
0.00272244
0.0027257
0.00272896
0.00273222
0.00273549
0.00273875
0.00274202
0.00274529
0.00274856
0.00275184
0.00275511
0.00275839
0.00276167
0.00276495
0.00276824
0.00277152
0.00277481
0.0027781
0.00278139
0.00278469
0.00278798
0.00279128
0.00279458
0.00279788
0.00280118
0.00280449
0.0028078
0.0028111
0.00281442
0.00281773
0.00282104
0.00282436
0.00282768
0.002831
0.00283432
0.00283765
0.00284097
0.0028443
0.00284763
0.00285097
0.0028543
0.00285764
0.00286097
0.00286432
0.00286766
0.002871
0.00287435
0.0028777
0.00288105
0.0028844
0.00288775
0.00289111
0.00289447
0.00289783
0.00290119
0.00290455
0.00290792
0.00291128
0.00291465
0.00291802
0.0029214
0.00292477
0.00292815
0.00293153
0.00293491
0.00293829
0.00294168
0.00294507
0.00294846
0.00295185
0.00295524
0.00295863
0.00296203
0.00296543
0.00296883
0.00297223
0.00297564
0.00297904
0.00298245
0.00298586
0.00298928
0.00299269
0.00299611
0.00299952
0.00300294
0.00300637
0.00300979
0.00301322
0.00301665
0.00302007
0.00302351
0.00302694
0.00303038
0.00303381
0.00303725
0.0030407
0.00304414
0.00304758
0.00305103
0.00305448
0.00305793
0.00306139
0.00306484
0.0030683
0.00307176
0.00307522
0.00307868
0.00308215
0.00308561
0.00308908
0.00309255
0.00309603
0.0030995
0.00310298
0.00310646
0.00310994
0.00311342
0.0031169
0.00312039
0.00312388
0.00312737
0.00313086
0.00313436
0.00313785
0.00314135
0.00314485
0.00314835
0.00315186
0.00315536
0.00315887
0.00316238
0.00316589
0.00316941
0.00317292
0.00317644
0.00317996
0.00318348
0.003187
0.00319053
0.00319406
0.00319759
0.00320112
0.00320465
0.00320819
0.00321172
0.00321526
0.0032188
0.00322235
0.00322589
0.00322944
0.00323299
0.00323654
0.00324009
0.00324364
0.0032472
0.00325076
0.00325432
0.00325788
0.00326145
0.00326501
0.00326858
0.00327215
0.00327572
0.0032793
0.00328287
0.00328645
0.00329003
0.00329361
0.0032972
0.00330078
0.00330437
0.00330796
0.00331155
0.00331515
0.00331874
0.00332234
0.00332594
0.00332954
0.00333314
0.00333675
0.00334036
0.00334397
0.00334758
0.00335119
0.00335481
0.00335842
0.00336204
0.00336566
0.00336928
0.00337291
0.00337654
0.00338017
0.0033838
0.00338743
0.00339106
0.0033947
0.00339834
0.00340198
0.00340562
0.00340927
0.00341291
0.00341656
0.00342021
0.00342386
0.00342752
0.00343117
0.00343483
0.00343849
0.00344215
0.00344582
0.00344948
0.00345315
0.00345682
0.00346049
0.00346416
0.00346784
0.00347152
0.0034752
0.00347888
0.00348256
0.00348625
0.00348993
0.00349362
0.00349731
0.00350101
0.0035047
0.0035084
0.0035121
0.0035158
0.0035195
0.00352321
0.00352691
0.00353062
0.00353433
0.00353804
0.00354176
0.00354547
0.00354919
0.00355291
0.00355664
0.00356036
0.00356409
0.00356781
0.00357154
0.00357528
0.00357901
0.00358275
0.00358648
0.00359022
0.00359396
0.00359771
0.00360145
0.0036052
0.00360895
0.0036127
0.00361646
0.00362021
0.00362397
0.00362773
0.00363149
0.00363525
0.00363902
0.00364278
0.00364655
0.00365033
0.0036541
0.00365787
0.00366165
0.00366543
0.00366921
0.00367299
0.00367678
0.00368056
0.00368435
0.00368814
0.00369193
0.00369573
0.00369953
0.00370332
0.00370712
0.00371093
0.00371473
0.00371854
0.00372234
0.00372615
0.00372997
0.00373378
0.0037376
0.00374141
0.00374523
0.00374905
0.00375288
0.0037567
0.00376053
0.00376436
0.00376819
0.00377203
0.00377586
0.0037797
0.00378354
0.00378738
0.00379122
0.00379507
0.00379891
0.00380276
0.00380661
0.00381047
0.00381432
0.00381818
0.00382204
0.0038259
0.00382976
0.00383362
0.00383749
0.00384136
0.00384523
0.0038491
0.00385298
0.00385685
0.00386073
0.00386461
0.00386849
0.00387238
0.00387626
0.00388015
0.00388404
0.00388793
0.00389183
0.00389572
0.00389962
0.00390352
0.00390742
0.00391132
0.00391523
0.00391914
0.00392305
0.00392696
0.00393087
0.00393479
0.0039387
0.00394262
0.00394654
0.00395047
0.00395439
0.00395832
0.00396225
0.00396618
0.00397011
0.00397404
0.00397798
0.00398192
0.00398586
0.0039898
0.00399375
0.00399769
0.00400164
0.00400559
0.00400954
0.0040135
0.00401745
0.00402141
0.00402537
0.00402933
0.0040333
0.00403726
0.00404123
0.0040452
0.00404917
0.00405315
0.00405712
0.0040611
0.00406508
0.00406906
0.00407304
0.00407703
0.00408102
0.00408501
0.004089
0.00409299
0.00409699
0.00410098
0.00410498
0.00410898
0.00411299
0.00411699
0.004121
0.00412501
0.00412902
0.00413303
0.00413704
0.00414106
0.00414508
0.0041491
0.00415312
0.00415715
0.00416117
0.0041652
0.00416923
0.00417326
0.0041773
0.00418133
0.00418537
0.00418941
0.00419345
0.0041975
0.00420154
0.00420559
0.00420964
0.00421369
0.00421774
0.0042218
0.00422586
0.00422992
0.00423398
0.00423804
0.00424211
0.00424617
0.00425024
0.00425431
0.00425839
0.00426246
0.00426654
0.00427062
0.0042747
0.00427878
0.00428287
0.00428695
0.00429104
0.00429513
0.00429923
0.00430332
0.00430742
0.00431151
0.00431561
0.00431972
0.00432382
0.00432793
0.00433204
0.00433615
0.00434026
0.00434437
0.00434849
0.00435261
0.00435673
0.00436085
0.00436497
0.0043691
0.00437322
0.00437735
0.00438149
0.00438562
0.00438975
0.00439389
0.00439803
0.00440217
0.00440632
0.00441046
0.00441461
0.00441876
0.00442291
0.00442706
0.00443122
0.00443537
0.00443953
0.00444369
0.00444785
0.00445202
0.00445619
0.00446035
0.00446452
0.0044687
0.00447287
0.00447705
0.00448123
0.00448541
0.00448959
0.00449377
0.00449796
0.00450215
0.00450634
0.00451053
0.00451472
0.00451892
0.00452312
0.00452732
0.00453152
0.00453572
0.00453993
0.00454413
0.00454834
0.00455255
0.00455677
0.00456098
0.0045652
0.00456942
0.00457364
0.00457786
0.00458209
0.00458632
0.00459055
0.00459478
0.00459901
0.00460324
0.00460748
0.00461172
0.00461596
0.0046202
0.00462445
0.00462869
0.00463294
0.00463719
0.00464144
0.0046457
0.00464996
0.00465421
0.00465847
0.00466274
0.004667
0.00467127
0.00467553
0.0046798
0.00468408
0.00468835
0.00469262
0.0046969
0.00470118
0.00470546
0.00470975
0.00471403
0.00471832
0.00472261
0.0047269
0.00473119
0.00473549
0.00473979
0.00474409
0.00474839
0.00475269
0.00475699
0.0047613
0.00476561
0.00476992
0.00477423
0.00477855
0.00478287
0.00478718
0.0047915
0.00479583
0.00480015
0.00480448
0.00480881
0.00481314
0.00481747
0.0048218
0.00482614
0.00483048
0.00483482
0.00483916
0.0048435
0.00484785
0.0048522
0.00485655
0.0048609
0.00486525
0.00486961
0.00487396
0.00487832
0.00488269
0.00488705
0.00489141
0.00489578
0.00490015
0.00490452
0.0049089
0.00491327
0.00491765
0.00492203
0.00492641
0.00493079
0.00493518
0.00493956
0.00494395
0.00494834
0.00495273
0.00495713
0.00496153
0.00496592
0.00497032
0.00497473
0.00497913
0.00498354
0.00498795
0.00499236
0.00499677
0.00500118
0.0050056
0.00501002
0.00501444
0.00501886
0.00502328
0.00502771
0.00503214
0.00503657
0.005041
0.00504543
0.00504987
0.0050543
0.00505874
0.00506318
0.00506763
0.00507207
0.00507652
0.00508097
0.00508542
0.00508987
0.00509433
0.00509879
0.00510324
0.00510771
0.00511217
0.00511663
0.0051211
0.00512557
0.00513004
0.00513451
0.00513899
0.00514346
0.00514794
0.00515242
0.0051569
0.00516139
0.00516587
0.00517036
0.00517485
0.00517934
0.00518384
0.00518833
0.00519283
0.00519733
0.00520183
0.00520634
0.00521084
0.00521535
0.00521986
0.00522437
0.00522888
0.0052334
0.00523792
0.00524244
0.00524696
0.00525148
0.00525601
0.00526053
0.00526506
0.00526959
0.00527413
0.00527866
0.0052832
0.00528774
0.00529228
0.00529682
0.00530137
0.00530591
0.00531046
0.00531501
0.00531956
0.00532412
0.00532867
0.00533323
0.00533779
0.00534236
0.00534692
0.00535149
0.00535605
0.00536062
0.0053652
0.00536977
0.00537435
0.00537892
0.0053835
0.00538808
0.00539267
0.00539725
0.00540184
0.00540643
0.00541102
0.00541562
0.00542021
0.00542481
0.00542941
0.00543401
0.00543861
0.00544322
0.00544782
0.00545243
0.00545704
0.00546166
0.00546627
0.00547089
0.00547551
0.00548013
0.00548475
0.00548937
0.005494
0.00549863
0.00550326
0.00550789
0.00551253
0.00551716
0.0055218
0.00552644
0.00553108
0.00553573
0.00554037
0.00554502
0.00554967
0.00555432
0.00555898
0.00556363
0.00556829
0.00557295
0.00557761
0.00558228
0.00558694
0.00559161
0.00559628
0.00560095
0.00560562
0.0056103
0.00561497
0.00561965
0.00562433
0.00562902
0.0056337
0.00563839
0.00564308
0.00564777
0.00565246
0.00565716
0.00566185
0.00566655
0.00567125
0.00567596
0.00568066
0.00568537
0.00569007
0.00569478
0.0056995
0.00570421
0.00570893
0.00571365
0.00571837
0.00572309
0.00572781
0.00573254
0.00573727
0.00574199
0.00574673
0.00575146
0.0057562
0.00576093
0.00576567
0.00577041
0.00577516
0.0057799
0.00578465
0.0057894
0.00579415
0.0057989
0.00580366
0.00580842
0.00581318
0.00581794
0.0058227
0.00582746
0.00583223
0.005837
0.00584177
0.00584654
0.00585132
0.00585609
0.00586087
0.00586565
0.00587044
0.00587522
0.00588001
0.0058848
0.00588959
0.00589438
0.00589917
0.00590397
0.00590877
0.00591357
0.00591837
0.00592317
0.00592798
0.00593278
0.00593759
0.00594241
0.00594722
0.00595204
0.00595685
0.00596167
0.00596649
0.00597132
0.00597614
0.00598097
0.0059858
0.00599063
0.00599546
0.0060003
0.00600514
0.00600997
0.00601481
0.00601966
0.0060245
0.00602935
0.0060342
0.00603905
0.0060439
0.00604876
0.00605361
0.00605847
0.00606333
0.00606819
0.00607306
0.00607792
0.00608279
0.00608766
0.00609253
0.00609741
0.00610228
0.00610716
0.00611204
0.00611692
0.00612181
0.00612669
0.00613158
0.00613647
0.00614136
0.00614626
0.00615115
0.00615605
0.00616095
0.00616585
0.00617075
0.00617566
0.00618056
0.00618547
0.00619038
0.0061953
0.00620021
0.00620513
0.00621005
0.00621497
0.00621989
0.00622482
0.00622974
0.00623467
0.0062396
0.00624453
0.00624947
0.00625441
0.00625934
0.00626428
0.00626923
0.00627417
0.00627912
0.00628406
0.00628901
0.00629397
0.00629892
0.00630388
0.00630883
0.00631379
0.00631876
0.00632372
0.00632868
0.00633365
0.00633862
0.00634359
0.00634857
0.00635354
0.00635852
0.0063635
0.00636848
0.00637346
0.00637845
0.00638344
0.00638842
0.00639341
0.00639841
0.0064034
0.0064084
0.0064134
0.0064184
0.0064234
0.00642841
0.00643341
0.00643842
0.00644343
0.00644844
0.00645346
0.00645847
0.00646349
0.00646851
0.00647354
0.00647856
0.00648359