/*--------------------------------*- C++ -*----------------------------------*\
| =========                 |                                                 |
| \\      /  F ield         | OpenFOAM: The Open Source CFD Toolbox           |
|  \\    /   O peration     | Version:  2206                                  |
|   \\  /    A nd           | Website:  www.openfoam.com                      |
|    \\/     M anipulation  |                                                 |
\*---------------------------------------------------------------------------*/
FoamFile
{
    version     2.0;
    format      ascii;
    arch        "LSB;label=32;scalar=64";
    class       surfaceScalarField;
    location    "90";
    object      phi;
}
// * * * * * * * * * * * * * * * * * * * * * * * * * * * * * * * * * * * * * //

dimensions      [0 3 -1 0 0 0 0];

oriented        oriented;

internalField   nonuniform List<scalar> 
94990
(
-3.39608e-25
1.82044e-25
-9.06702e-25
6.17887e-25
-1.90158e-24
9.19466e-25
-3.27556e-24
1.42086e-24
-5.11011e-24
1.7925e-24
-7.30491e-24
2.22806e-24
-9.90639e-24
2.58023e-24
-1.29061e-23
3.02233e-24
-1.63228e-23
3.40324e-24
-2.01268e-23
3.82011e-24
-2.43334e-23
4.19745e-24
-2.89424e-23
4.62103e-24
-3.39537e-23
5.00474e-24
-3.93622e-23
5.4177e-24
-4.51755e-23
5.80838e-24
-5.13855e-23
6.21726e-24
-5.80008e-23
6.61165e-24
-6.50128e-23
7.01781e-24
-7.24287e-23
7.41314e-24
-8.02432e-23
7.81928e-24
-8.84605e-23
8.2152e-24
-9.70766e-23
8.62006e-24
-1.06095e-22
9.0172e-24
-1.15513e-22
9.42134e-24
-1.25334e-22
9.81891e-24
-1.35553e-22
1.02227e-23
-1.46175e-22
1.06206e-23
-1.57197e-22
1.10241e-23
-1.6862e-22
1.14223e-23
-1.80443e-22
1.18256e-23
-1.92668e-22
1.22239e-23
-2.05293e-22
1.2627e-23
-2.18319e-22
1.30256e-23
-2.31746e-22
1.34285e-23
-2.45574e-22
1.38273e-23
-2.59802e-22
1.423e-23
-2.74431e-22
1.46289e-23
-2.89462e-22
1.50315e-23
-3.04892e-22
1.54306e-23
-3.20724e-22
1.5833e-23
-3.36957e-22
1.62322e-23
-3.5359e-22
1.66345e-23
-3.70624e-22
1.70339e-23
-3.88059e-22
1.7436e-23
-4.05895e-22
1.78355e-23
-4.24132e-22
1.82376e-23
-4.42769e-22
1.86371e-23
-4.61807e-22
1.90391e-23
-4.81246e-22
1.94388e-23
-5.01086e-22
1.98407e-23
-5.21326e-22
2.02404e-23
-5.41968e-22
2.06422e-23
-5.6301e-22
2.1042e-23
-5.84453e-22
2.14438e-23
-6.06297e-22
2.18437e-23
-6.28542e-22
2.22454e-23
-6.51187e-22
2.26453e-23
-6.74234e-22
2.30469e-23
-6.9768e-22
2.34469e-23
-7.21529e-22
2.38485e-23
-7.45777e-22
2.42485e-23
-7.70427e-22
2.46501e-23
-7.95477e-22
2.50502e-23
-8.20928e-22
2.54517e-23
-8.4678e-22
2.58518e-23
-8.73033e-22
2.62533e-23
-8.99686e-22
2.66534e-23
-9.2674e-22
2.70548e-23
-9.54195e-22
2.7455e-23
-9.82052e-22
2.78564e-23
-1.01031e-21
2.82566e-23
-1.03897e-21
2.8658e-23
-1.06802e-21
2.90582e-23
-1.09748e-21
2.94596e-23
-1.12734e-21
2.98599e-23
-1.1576e-21
3.02612e-23
-1.18827e-21
3.06615e-23
-1.21933e-21
3.10628e-23
-1.25079e-21
3.14631e-23
-1.28266e-21
3.18644e-23
-1.31492e-21
3.22647e-23
-1.34759e-21
3.2666e-23
-1.38065e-21
3.30663e-23
-1.41412e-21
3.34676e-23
-1.44799e-21
3.38679e-23
-1.48226e-21
3.42692e-23
-1.51693e-21
3.46696e-23
-1.552e-21
3.50708e-23
-1.58747e-21
3.54712e-23
-1.62334e-21
3.58724e-23
-1.65961e-21
3.62728e-23
-1.69629e-21
3.6674e-23
-1.73336e-21
3.70744e-23
-1.77084e-21
3.74756e-23
-1.80871e-21
3.7876e-23
-1.84699e-21
3.82772e-23
-1.88567e-21
3.86776e-23
-1.92474e-21
3.90788e-23
-1.96422e-21
3.94792e-23
-2.0041e-21
3.98804e-23
-2.04438e-21
4.02808e-23
-2.08507e-21
4.0682e-23
-2.12615e-21
4.10825e-23
-2.16763e-21
4.14836e-23
-2.20952e-21
4.18841e-23
-2.2518e-21
4.22852e-23
-2.29449e-21
4.26857e-23
-2.33757e-21
4.30868e-23
-2.38106e-21
4.34873e-23
-2.42495e-21
4.38884e-23
-2.46924e-21
4.42889e-23
-2.51393e-21
4.469e-23
-2.55902e-21
4.50905e-23
-2.60451e-21
4.54916e-23
-2.6504e-21
4.58921e-23
-2.69669e-21
4.62932e-23
-2.74339e-21
4.66937e-23
-2.79048e-21
4.70948e-23
-2.83798e-21
4.74954e-23
-2.88587e-21
4.78964e-23
-2.93417e-21
4.8297e-23
-2.98287e-21
4.8698e-23
-3.03197e-21
4.90986e-23
-3.08147e-21
4.94996e-23
-3.13137e-21
4.99002e-23
-3.18167e-21
5.03012e-23
-3.23237e-21
5.07018e-23
-3.28347e-21
5.11028e-23
-3.33498e-21
5.15034e-23
-3.38688e-21
5.19044e-23
-3.43919e-21
5.2305e-23
-3.49189e-21
5.2706e-23
-3.545e-21
5.31066e-23
-3.59851e-21
5.35076e-23
-3.65241e-21
5.39082e-23
-3.70672e-21
5.43092e-23
-3.76143e-21
5.47099e-23
-3.81654e-21
5.51108e-23
-3.87205e-21
5.55115e-23
-3.92797e-21
5.59124e-23
-3.98428e-21
5.63131e-23
-4.04099e-21
5.6714e-23
-4.09811e-21
5.71147e-23
-4.15562e-21
5.75156e-23
-4.21354e-21
5.79163e-23
-4.27186e-21
5.83173e-23
-4.33058e-21
5.87179e-23
-4.38969e-21
5.91189e-23
-4.44921e-21
5.95195e-23
-4.50913e-21
5.99205e-23
-4.56945e-21
6.03211e-23
-4.63018e-21
6.07221e-23
-4.6913e-21
6.11227e-23
-4.75282e-21
6.15237e-23
-4.81475e-21
6.19243e-23
-4.87707e-21
6.23253e-23
-4.9398e-21
6.2726e-23
-5.00293e-21
6.31269e-23
-5.06645e-21
6.35276e-23
-5.13038e-21
6.39285e-23
-5.19471e-21
6.43292e-23
-5.25944e-21
6.47301e-23
-5.32457e-21
6.51308e-23
-5.3901e-21
6.55317e-23
-5.45604e-21
6.59324e-23
-5.52237e-21
6.63333e-23
-5.5891e-21
6.6734e-23
-5.65624e-21
6.71349e-23
-5.72377e-21
6.75356e-23
-5.79171e-21
6.79365e-23
-5.86005e-21
6.83372e-23
-5.92878e-21
6.87382e-23
-5.99792e-21
6.91388e-23
-6.06746e-21
6.95398e-23
-6.1374e-21
6.99404e-23
-6.20774e-21
7.03414e-23
-6.27849e-21
7.07421e-23
-6.34963e-21
7.1143e-23
-6.42117e-21
7.15437e-23
-6.49312e-21
7.19446e-23
-6.56546e-21
7.23453e-23
-6.63821e-21
7.27462e-23
-6.71136e-21
7.31469e-23
-6.7849e-21
7.35478e-23
-6.85885e-21
7.39485e-23
-6.9332e-21
7.43494e-23
-7.00795e-21
7.47501e-23
-7.0831e-21
7.5151e-23
-7.15865e-21
7.55517e-23
-7.23461e-21
7.59526e-23
-7.31096e-21
7.63533e-23
-7.38771e-21
7.67542e-23
-7.46487e-21
7.71549e-23
-7.54242e-21
7.75558e-23
-7.62038e-21
7.79565e-23
-7.69874e-21
7.83575e-23
-7.7775e-21
7.87582e-23
-7.85666e-21
7.91591e-23
-7.93622e-21
7.95598e-23
-8.01618e-21
7.99607e-23
-8.09654e-21
8.03614e-23
-8.1773e-21
8.07623e-23
-8.25846e-21
8.1163e-23
-8.34003e-21
8.15639e-23
-8.42199e-21
8.19646e-23
-8.50436e-21
8.23655e-23
-8.58712e-21
8.27662e-23
-8.67029e-21
8.31671e-23
-8.75386e-21
8.35678e-23
-8.83783e-21
8.39687e-23
-8.92219e-21
8.43694e-23
-9.00697e-21
8.47703e-23
-9.09214e-21
8.5171e-23
-9.17771e-21
8.55719e-23
-9.26368e-21
8.59726e-23
-9.35005e-21
8.63735e-23
-9.43683e-21
8.67742e-23
-9.524e-21
8.71752e-23
-9.61158e-21
8.75759e-23
-9.69956e-21
8.79768e-23
-9.78793e-21
8.83775e-23
-9.87671e-21
8.87784e-23
-9.96589e-21
8.91791e-23
-1.00555e-20
8.958e-23
-1.01455e-20
8.99807e-23
-1.02358e-20
9.03816e-23
-1.03266e-20
9.07823e-23
-1.04178e-20
9.11832e-23
-1.05094e-20
9.15839e-23
-1.06014e-20
9.19848e-23
-1.06938e-20
9.23855e-23
-1.07865e-20
9.27864e-23
-1.08797e-20
9.31871e-23
-1.09733e-20
9.3588e-23
-1.10673e-20
9.39887e-23
-1.11617e-20
9.43896e-23
-1.12565e-20
9.47903e-23
-1.13517e-20
9.51912e-23
-1.14473e-20
9.5592e-23
-1.15433e-20
9.59929e-23
-1.16397e-20
9.63936e-23
-1.17364e-20
9.67945e-23
-1.18336e-20
9.71952e-23
-1.19312e-20
9.75961e-23
-1.20292e-20
9.79968e-23
-1.21276e-20
9.83977e-23
-1.22264e-20
9.87984e-23
-1.23256e-20
9.91993e-23
-1.24252e-20
9.96e-23
-1.25252e-20
1.00001e-22
-1.26256e-20
1.00402e-22
-1.27264e-20
1.00803e-22
-1.28276e-20
1.01203e-22
-1.29292e-20
1.01604e-22
-1.30312e-20
1.02005e-22
-1.31337e-20
1.02406e-22
-1.32365e-20
1.02806e-22
-1.33397e-20
1.03207e-22
-1.34433e-20
1.03608e-22
-1.35473e-20
1.04009e-22
-1.36517e-20
1.0441e-22
-1.37565e-20
1.04811e-22
-1.38617e-20
1.05211e-22
-1.39673e-20
1.05612e-22
-1.40733e-20
1.06013e-22
-1.41798e-20
1.06414e-22
-1.42866e-20
1.06814e-22
-1.43938e-20
1.07215e-22
-1.45014e-20
1.07616e-22
-1.46094e-20
1.08017e-22
-1.47178e-20
1.08418e-22
-1.48267e-20
1.08819e-22
-1.49359e-20
1.09219e-22
-1.50455e-20
1.0962e-22
-1.51555e-20
1.10021e-22
-1.52659e-20
1.10422e-22
-1.53768e-20
1.10823e-22
-1.5488e-20
1.11223e-22
-1.55996e-20
1.11624e-22
-1.57116e-20
1.12025e-22
-1.58241e-20
1.12426e-22
-1.59369e-20
1.12827e-22
-1.60501e-20
1.13227e-22
-1.61637e-20
1.13628e-22
-1.62778e-20
1.14029e-22
-1.63922e-20
1.1443e-22
-1.6507e-20
1.14831e-22
-1.66223e-20
1.15231e-22
-1.67379e-20
1.15632e-22
-1.68539e-20
1.16033e-22
-1.69704e-20
1.16434e-22
-1.70872e-20
1.16835e-22
-1.72044e-20
1.17235e-22
-1.73221e-20
1.17636e-22
-1.74401e-20
1.18037e-22
-1.75585e-20
1.18438e-22
-1.76774e-20
1.18839e-22
-1.77966e-20
1.1924e-22
-1.79163e-20
1.1964e-22
-1.80363e-20
1.20041e-22
-1.81567e-20
1.20442e-22
-1.82776e-20
1.20843e-22
-1.83988e-20
1.21243e-22
-1.85205e-20
1.21644e-22
-1.86425e-20
1.22045e-22
-1.8765e-20
1.22446e-22
-1.88878e-20
1.22847e-22
-1.90111e-20
1.23248e-22
-1.91347e-20
1.23648e-22
-1.92587e-20
1.24049e-22
-1.93832e-20
1.2445e-22
-1.9508e-20
1.24851e-22
-1.96333e-20
1.25252e-22
-1.9759e-20
1.25652e-22
-1.9885e-20
1.26053e-22
-2.00115e-20
1.26454e-22
-2.01383e-20
1.26855e-22
-2.02656e-20
1.27256e-22
-2.03932e-20
1.27656e-22
-2.05213e-20
1.28057e-22
-2.06497e-20
1.28458e-22
-2.07786e-20
1.28859e-22
-2.09079e-20
1.2926e-22
-2.10375e-20
1.2966e-22
-2.11676e-20
1.30061e-22
-2.1298e-20
1.30462e-22
-2.14289e-20
1.30863e-22
-2.15602e-20
1.31264e-22
-2.16918e-20
1.31664e-22
-2.18239e-20
1.32065e-22
-2.19564e-20
1.32466e-22
-2.20892e-20
1.32867e-22
-2.22225e-20
1.33268e-22
-2.23562e-20
1.33669e-22
-2.24902e-20
1.34069e-22
-2.26247e-20
1.3447e-22
-2.27596e-20
1.34871e-22
-2.28949e-20
1.35272e-22
-2.30305e-20
1.35672e-22
-2.31666e-20
1.36073e-22
-2.33031e-20
1.36474e-22
-2.34399e-20
1.36875e-22
-2.35772e-20
1.37276e-22
-2.37149e-20
1.37677e-22
-2.3853e-20
1.38077e-22
-2.39915e-20
1.38478e-22
-2.41303e-20
1.38879e-22
-2.42696e-20
1.3928e-22
-2.44093e-20
1.3968e-22
-2.45494e-20
1.40081e-22
-2.46899e-20
1.40482e-22
-2.48307e-20
1.40883e-22
-2.4972e-20
1.41284e-22
-2.51137e-20
1.41685e-22
-2.52558e-20
1.42085e-22
-2.53983e-20
1.42486e-22
-2.55412e-20
1.42887e-22
-2.56845e-20
1.43288e-22
-2.58281e-20
1.43689e-22
-2.59722e-20
1.44089e-22
-2.61167e-20
1.4449e-22
-2.62616e-20
1.44891e-22
-2.64069e-20
1.45292e-22
-2.65526e-20
1.45693e-22
-2.66987e-20
1.46093e-22
-2.68452e-20
1.46494e-22
-2.69921e-20
1.46895e-22
-2.71394e-20
1.47296e-22
-2.72871e-20
1.47697e-22
-2.74352e-20
1.48097e-22
-2.75837e-20
1.48498e-22
-2.77326e-20
1.48899e-22
-2.78819e-20
1.493e-22
-2.80316e-20
1.49701e-22
-2.81817e-20
1.50101e-22
-2.83322e-20
1.50502e-22
-2.84831e-20
1.50903e-22
-2.86344e-20
1.51304e-22
-2.87861e-20
1.51705e-22
-2.89382e-20
1.52106e-22
-2.90907e-20
1.52506e-22
-2.92436e-20
1.52907e-22
-2.93969e-20
1.53308e-22
-2.95506e-20
1.53709e-22
-2.97047e-20
1.54109e-22
-2.98592e-20
1.5451e-22
-3.00141e-20
1.54911e-22
-3.01695e-20
1.55312e-22
-3.03252e-20
1.55713e-22
-3.04813e-20
1.56114e-22
-3.06378e-20
1.56514e-22
-3.07947e-20
1.56915e-22
-3.0952e-20
1.57316e-22
-3.11097e-20
1.57717e-22
-3.12679e-20
1.58117e-22
-3.14264e-20
1.58518e-22
-3.15853e-20
1.58919e-22
-3.17446e-20
1.5932e-22
-3.19043e-20
1.59721e-22
-3.20645e-20
1.60122e-22
-3.2225e-20
1.60522e-22
-3.23859e-20
1.60923e-22
-3.25472e-20
1.61324e-22
-3.2709e-20
1.61725e-22
-3.28711e-20
1.62126e-22
-3.30336e-20
1.62526e-22
-3.31965e-20
1.62927e-22
-3.33599e-20
1.63328e-22
-3.35236e-20
1.63729e-22
-3.36877e-20
1.6413e-22
-3.38523e-20
1.6453e-22
-3.40172e-20
1.64931e-22
-3.41825e-20
1.65332e-22
-3.43482e-20
1.65733e-22
-3.45144e-20
1.66134e-22
-3.46809e-20
1.66535e-22
-3.48478e-20
1.66935e-22
-3.50152e-20
1.67336e-22
-3.51829e-20
1.67737e-22
-3.53511e-20
1.68138e-22
-3.55196e-20
1.68538e-22
-3.56885e-20
1.68939e-22
-3.58579e-20
1.6934e-22
-3.60276e-20
1.69741e-22
-3.61978e-20
1.70142e-22
-3.63683e-20
1.70543e-22
-3.65392e-20
1.70943e-22
-3.67106e-20
1.71344e-22
-3.68823e-20
1.71745e-22
-3.70545e-20
1.72146e-22
-3.7227e-20
1.72546e-22
-3.74e-20
1.72947e-22
-3.75733e-20
1.73348e-22
-3.77471e-20
1.73749e-22
-3.79212e-20
1.7415e-22
-3.80958e-20
1.74551e-22
-3.82707e-20
1.74951e-22
-3.84461e-20
1.75352e-22
-3.86218e-20
1.75753e-22
-3.8798e-20
1.76154e-22
-3.89745e-20
1.76554e-22
-3.91515e-20
1.76955e-22
-3.93288e-20
1.77356e-22
-3.95066e-20
1.77757e-22
-3.96848e-20
1.78158e-22
-3.98633e-20
1.78559e-22
-4.00423e-20
1.78959e-22
-4.02216e-20
1.7936e-22
-4.04014e-20
1.79761e-22
-4.05816e-20
1.80162e-22
-4.07621e-20
1.80563e-22
-4.09431e-20
1.80964e-22
-4.11245e-20
1.81364e-22
-4.13062e-20
1.81765e-22
-4.14884e-20
1.82166e-22
-4.16709e-20
1.82567e-22
-4.18539e-20
1.82967e-22
-4.20373e-20
1.83368e-22
-4.22211e-20
1.83769e-22
-4.24052e-20
1.8417e-22
-4.25898e-20
1.84571e-22
-4.27748e-20
1.84972e-22
-4.29601e-20
1.85372e-22
-4.31459e-20
1.85773e-22
-4.33321e-20
1.86174e-22
-4.35187e-20
1.86575e-22
-4.37056e-20
1.86975e-22
-4.3893e-20
1.87376e-22
-4.40808e-20
1.87777e-22
-4.4269e-20
1.88178e-22
-4.44575e-20
1.88579e-22
-4.46465e-20
1.8898e-22
-4.48359e-20
1.8938e-22
-4.50257e-20
1.89781e-22
-4.52159e-20
1.90182e-22
-4.54064e-20
1.90583e-22
-4.55974e-20
1.90983e-22
-4.57888e-20
1.91384e-22
-4.59806e-20
1.91785e-22
-4.61728e-20
1.92186e-22
-4.63654e-20
1.92587e-22
-4.65584e-20
1.92988e-22
-4.67518e-20
1.93388e-22
-4.69455e-20
1.93789e-22
-4.71397e-20
1.9419e-22
-4.73343e-20
1.94591e-22
-4.75293e-20
1.94991e-22
-4.77247e-20
1.95393e-22
-4.79205e-20
1.95793e-22
-4.81167e-20
1.96194e-22
-4.83133e-20
1.96595e-22
-4.85103e-20
1.96996e-22
-4.87077e-20
1.97396e-22
-4.89055e-20
1.97797e-22
-4.91037e-20
1.98198e-22
-4.93023e-20
1.98599e-22
-4.95013e-20
1.99e-22
-4.97007e-20
1.99401e-22
-4.99005e-20
1.99801e-22
-5.01007e-20
2.00202e-22
-5.03013e-20
2.00603e-22
-5.05023e-20
2.01004e-22
-5.07037e-20
2.01404e-22
-5.09055e-20
2.01805e-22
-5.11077e-20
2.02206e-22
-5.13103e-20
2.02607e-22
-5.15133e-20
2.03008e-22
-5.17167e-20
2.03409e-22
-5.19205e-20
2.03809e-22
-5.21247e-20
2.0421e-22
-5.23293e-20
2.04611e-22
-5.25344e-20
2.05012e-22
-5.27398e-20
2.05412e-22
-5.29456e-20
2.05813e-22
-5.31518e-20
2.06214e-22
-5.33584e-20
2.06615e-22
-5.35654e-20
2.07016e-22
-5.37728e-20
2.07417e-22
-5.39807e-20
2.07817e-22
-5.41889e-20
2.08218e-22
-5.43975e-20
2.08619e-22
-5.46065e-20
2.0902e-22
-5.48159e-20
2.0942e-22
-5.50258e-20
2.09821e-22
-5.5236e-20
2.10222e-22
-5.54466e-20
2.10623e-22
-5.56576e-20
2.11024e-22
-5.58691e-20
2.11425e-22
-5.60809e-20
2.11825e-22
-5.62931e-20
2.12226e-22
-5.65057e-20
2.12627e-22
-5.67188e-20
2.13028e-22
-5.69322e-20
2.13429e-22
-5.7146e-20
2.1383e-22
-5.73603e-20
2.1423e-22
-5.75749e-20
2.14631e-22
-5.77899e-20
2.15032e-22
-5.80053e-20
2.15433e-22
-5.82212e-20
2.15833e-22
-5.84374e-20
2.16234e-22
-5.8654e-20
2.16635e-22
-5.88711e-20
2.17036e-22
-5.90885e-20
2.17437e-22
-5.93064e-20
2.17838e-22
-5.95246e-20
2.18238e-22
-5.97432e-20
2.18639e-22
-5.99623e-20
2.1904e-22
-6.01817e-20
2.19441e-22
-6.04016e-20
2.19841e-22
-6.06218e-20
2.20242e-22
-6.08424e-20
2.20643e-22
-6.10635e-20
2.21044e-22
-6.12849e-20
2.21445e-22
-6.15068e-20
2.21846e-22
-6.1729e-20
2.22246e-22
-6.19517e-20
2.22647e-22
-6.21747e-20
2.23048e-22
-6.23982e-20
2.23449e-22
-6.2622e-20
2.23849e-22
-6.28463e-20
2.2425e-22
-6.30709e-20
2.24651e-22
-6.3296e-20
2.25052e-22
-6.35214e-20
2.25453e-22
-6.37473e-20
2.25854e-22
-6.39735e-20
2.26254e-22
-6.42002e-20
2.26655e-22
-6.44272e-20
2.27056e-22
-6.46547e-20
2.27457e-22
-6.48826e-20
2.27857e-22
-6.51108e-20
2.28259e-22
-6.53395e-20
2.28659e-22
-6.55685e-20
2.2906e-22
-6.5798e-20
2.29461e-22
-6.60279e-20
2.29862e-22
-6.62581e-20
2.30262e-22
-6.64888e-20
2.30663e-22
-6.67198e-20
2.31064e-22
-6.69513e-20
2.31465e-22
-6.71832e-20
2.31866e-22
-6.74154e-20
2.32267e-22
-6.76481e-20
2.32667e-22
-6.78812e-20
2.33068e-22
-6.81146e-20
2.33469e-22
-6.83485e-20
2.3387e-22
-6.85828e-20
2.3427e-22
-6.88175e-20
2.34671e-22
-6.90525e-20
2.35072e-22
-6.9288e-20
2.35473e-22
-6.95239e-20
2.35874e-22
-6.97601e-20
2.36275e-22
-6.99968e-20
2.36675e-22
-7.02339e-20
2.37076e-22
-7.04714e-20
2.37477e-22
-7.07093e-20
2.37878e-22
-7.09475e-20
2.38278e-22
-7.11862e-20
2.38679e-22
-7.14253e-20
2.3908e-22
-7.16648e-20
2.39481e-22
-7.19047e-20
2.39882e-22
-7.21449e-20
2.40283e-22
-7.23856e-20
2.40683e-22
-7.26267e-20
2.41084e-22
-7.28682e-20
2.41485e-22
-7.31101e-20
2.41886e-22
-7.33524e-20
2.42286e-22
-7.3595e-20
2.42688e-22
-7.38381e-20
2.43088e-22
-7.40816e-20
2.43489e-22
-7.43255e-20
2.4389e-22
-7.45698e-20
2.44291e-22
-7.48145e-20
2.44691e-22
-7.50596e-20
2.45092e-22
-7.53051e-20
2.45493e-22
-7.5551e-20
2.45894e-22
-7.57973e-20
2.46294e-22
-7.6044e-20
2.46696e-22
-7.62911e-20
2.47096e-22
-7.65386e-20
2.47497e-22
-7.67865e-20
2.47898e-22
-7.70348e-20
2.48299e-22
-7.72835e-20
2.48699e-22
-7.75326e-20
2.491e-22
-7.77821e-20
2.49501e-22
-7.8032e-20
2.49902e-22
-7.82823e-20
2.50303e-22
-7.8533e-20
2.50704e-22
-7.87841e-20
2.51104e-22
-7.90356e-20
2.51505e-22
-7.92875e-20
2.51906e-22
-7.95398e-20
2.52307e-22
-7.97925e-20
2.52707e-22
-8.00456e-20
2.53108e-22
-8.02991e-20
2.53509e-22
-8.0553e-20
2.5391e-22
-8.08073e-20
2.54311e-22
-8.1062e-20
2.54712e-22
-8.13172e-20
2.55112e-22
-8.15727e-20
2.55513e-22
-8.18286e-20
2.55914e-22
-8.20849e-20
2.56315e-22
-8.23416e-20
2.56715e-22
-8.25987e-20
2.57117e-22
-8.28562e-20
2.57517e-22
-8.31142e-20
2.57918e-22
-8.33725e-20
2.58319e-22
-8.36312e-20
2.5872e-22
-8.38903e-20
2.5912e-22
-8.41498e-20
2.59521e-22
-8.44098e-20
2.59922e-22
-8.46701e-20
2.60323e-22
-8.49308e-20
2.60723e-22
-8.51919e-20
2.61125e-22
-8.54535e-20
2.61525e-22
-8.57154e-20
2.61926e-22
-8.59777e-20
2.62327e-22
-8.62404e-20
2.62728e-22
-8.65036e-20
2.63128e-22
-8.67671e-20
2.63529e-22
-8.7031e-20
2.6393e-22
-8.72954e-20
2.64331e-22
-8.75601e-20
2.64731e-22
-8.78252e-20
2.65133e-22
-8.80908e-20
2.65533e-22
-8.83567e-20
2.65934e-22
-8.8623e-20
2.66335e-22
-8.88898e-20
2.66736e-22
-8.91569e-20
2.67136e-22
-8.94244e-20
2.67537e-22
-8.96924e-20
2.67938e-22
-8.99607e-20
2.68339e-22
-9.02294e-20
2.6874e-22
-9.04986e-20
2.69141e-22
-9.07681e-20
2.69541e-22
-9.10381e-20
2.69942e-22
-9.13084e-20
2.70343e-22
-9.15792e-20
2.70744e-22
-9.18503e-20
2.71144e-22
-9.21218e-20
2.71546e-22
-9.23938e-20
2.71946e-22
-9.26661e-20
2.72347e-22
-9.29389e-20
2.72748e-22
-9.3212e-20
2.73149e-22
-9.34856e-20
2.73549e-22
-9.37595e-20
2.7395e-22
-9.40339e-20
2.74351e-22
-9.43086e-20
2.74752e-22
-9.45838e-20
2.75152e-22
-9.48593e-20
2.75554e-22
-9.51353e-20
2.75954e-22
-9.54117e-20
2.76355e-22
-9.56884e-20
2.76756e-22
-9.59656e-20
2.77157e-22
-9.62431e-20
2.77557e-22
-9.65211e-20
2.77958e-22
-9.67994e-20
2.78359e-22
-9.70782e-20
2.7876e-22
-9.73574e-20
2.7916e-22
-9.76369e-20
2.79562e-22
-9.79169e-20
2.79962e-22
-9.81972e-20
2.80363e-22
-9.8478e-20
2.80764e-22
-9.87592e-20
2.81165e-22
-9.90407e-20
2.81565e-22
-9.93227e-20
2.81966e-22
-9.96051e-20
2.82367e-22
-9.98878e-20
2.82768e-22
-1.00171e-19
2.83168e-22
-1.00455e-19
2.8357e-22
-1.00739e-19
2.8397e-22
-1.01023e-19
2.84371e-22
-1.01308e-19
2.84772e-22
-1.01593e-19
2.85173e-22
-1.01878e-19
2.85573e-22
-1.02164e-19
2.85975e-22
-1.02451e-19
2.86375e-22
-1.02738e-19
2.86776e-22
-1.03025e-19
2.87177e-22
-1.03312e-19
2.87578e-22
-1.036e-19
2.87978e-22
-1.03889e-19
2.88379e-22
-1.04177e-19
2.8878e-22
-1.04467e-19
2.89181e-22
-1.04756e-19
2.89581e-22
-1.05046e-19
2.89983e-22
-1.05337e-19
2.90383e-22
-1.05627e-19
2.90784e-22
-1.05919e-19
2.91185e-22
-1.0621e-19
2.91586e-22
-1.06502e-19
2.91986e-22
-1.06795e-19
2.92387e-22
-1.07087e-19
2.92788e-22
-1.0738e-19
2.93189e-22
-1.07674e-19
2.93589e-22
-1.07968e-19
2.93991e-22
-1.08262e-19
2.94391e-22
-1.08557e-19
2.94792e-22
-1.08852e-19
2.95193e-22
-1.09148e-19
2.95594e-22
-1.09444e-19
2.95994e-22
-1.0974e-19
2.96395e-22
-1.10037e-19
2.96796e-22
-1.10334e-19
2.97197e-22
-1.10632e-19
2.97597e-22
-1.1093e-19
2.97999e-22
-1.11228e-19
2.98399e-22
-1.11527e-19
2.988e-22
-1.11826e-19
2.99201e-22
-1.12126e-19
2.99602e-22
-1.12426e-19
3.00002e-22
-1.12726e-19
3.00404e-22
-1.13027e-19
3.00804e-22
-1.13328e-19
3.01205e-22
-1.1363e-19
3.01605e-22
-1.13932e-19
3.02007e-22
-1.14234e-19
3.02407e-22
-1.14537e-19
3.02808e-22
-1.1484e-19
3.03209e-22
-1.15144e-19
3.0361e-22
-1.15448e-19
3.0401e-22
-1.15752e-19
3.04412e-22
-1.16057e-19
3.04812e-22
-1.16363e-19
3.05213e-22
-1.16668e-19
3.05614e-22
-1.16974e-19
3.06015e-22
-1.17281e-19
3.06415e-22
-1.17587e-19
3.06816e-22
-1.17895e-19
3.07217e-22
-1.18202e-19
3.07618e-22
-1.1851e-19
3.08018e-22
-1.18819e-19
3.0842e-22
-1.19127e-19
3.0882e-22
-1.19437e-19
3.09221e-22
-1.19746e-19
3.09622e-22
-1.20056e-19
3.10023e-22
-1.20367e-19
3.10423e-22
-1.20678e-19
3.10824e-22
-1.20989e-19
3.11225e-22
-1.213e-19
3.11626e-22
-1.21612e-19
3.12026e-22
-1.21925e-19
3.12428e-22
-1.22238e-19
3.12828e-22
-1.22551e-19
3.13229e-22
-1.22865e-19
3.1363e-22
-1.23179e-19
3.14031e-22
-1.23493e-19
3.14431e-22
-1.23808e-19
3.14833e-22
-1.24123e-19
3.15233e-22
-1.24439e-19
3.15634e-22
-1.24755e-19
3.16034e-22
-1.25071e-19
3.16436e-22
-1.25388e-19
3.16836e-22
-1.25705e-19
3.17237e-22
-1.26023e-19
3.17638e-22
-1.26341e-19
3.18039e-22
-1.26659e-19
3.18439e-22
-1.26978e-19
3.18841e-22
-1.27297e-19
3.19241e-22
-1.27617e-19
3.19642e-22
-1.27937e-19
3.20042e-22
-1.28258e-19
3.20444e-22
-1.28578e-19
3.20844e-22
-1.289e-19
3.21245e-22
-1.29221e-19
3.21646e-22
-1.29543e-19
3.22047e-22
-1.29866e-19
3.22447e-22
-1.30189e-19
3.22849e-22
-1.30512e-19
3.23249e-22
-1.30836e-19
3.2365e-22
-1.3116e-19
3.24051e-22
-1.31484e-19
3.24452e-22
-1.31809e-19
3.24852e-22
-1.32134e-19
3.25253e-22
-1.3246e-19
3.25654e-22
-1.32786e-19
3.26055e-22
-1.33112e-19
3.26455e-22
-1.33439e-19
3.26857e-22
-1.33766e-19
3.27257e-22
-1.34094e-19
3.27658e-22
-1.34422e-19
3.28059e-22
-1.34751e-19
3.2846e-22
-1.35079e-19
3.2886e-22
-1.35409e-19
3.29262e-22
-1.35738e-19
3.29662e-22
-1.36068e-19
3.30063e-22
-1.36399e-19
3.30463e-22
-1.3673e-19
3.30865e-22
-1.37061e-19
3.31265e-22
-1.37393e-19
3.31666e-22
-1.37725e-19
3.32067e-22
-1.38057e-19
3.32468e-22
-1.3839e-19
3.32868e-22
-1.38723e-19
3.3327e-22
-1.39057e-19
3.3367e-22
-1.39391e-19
3.34071e-22
-1.39726e-19
3.34471e-22
-1.4006e-19
3.34873e-22
-1.40396e-19
3.35273e-22
-1.40731e-19
3.35674e-22
-1.41068e-19
3.36075e-22
-1.41404e-19
3.36476e-22
-1.41741e-19
3.36876e-22
-1.42078e-19
3.37278e-22
-1.42416e-19
3.37678e-22
-1.42754e-19
3.38079e-22
-1.43092e-19
3.38479e-22
-1.43431e-19
3.38881e-22
-1.43771e-19
3.39281e-22
-1.4411e-19
3.39682e-22
-1.4445e-19
3.40083e-22
-1.44791e-19
3.40484e-22
-1.45132e-19
3.40884e-22
-1.45473e-19
3.41286e-22
-1.45815e-19
3.41686e-22
-1.46157e-19
3.42087e-22
-1.46499e-19
3.42488e-22
-1.46842e-19
3.42889e-22
-1.47185e-19
3.43289e-22
-1.47529e-19
3.43691e-22
-1.47873e-19
3.44091e-22
-1.48218e-19
3.44492e-22
-1.48563e-19
3.44892e-22
-1.48908e-19
3.45294e-22
-1.49254e-19
3.45694e-22
-1.496e-19
3.46095e-22
-1.49946e-19
3.46496e-22
-1.50293e-19
3.46897e-22
-1.5064e-19
3.47297e-22
-1.50988e-19
3.47699e-22
-1.51336e-19
3.48099e-22
-1.51685e-19
3.485e-22
-1.52034e-19
3.489e-22
-1.52383e-19
3.49302e-22
-1.52733e-19
3.49702e-22
-1.53083e-19
3.50103e-22
-1.53433e-19
3.50504e-22
-1.53784e-19
3.50905e-22
-1.54135e-19
3.51305e-22
-1.54487e-19
3.51707e-22
-1.54839e-19
3.52107e-22
-1.55192e-19
3.52508e-22
-1.55545e-19
3.52908e-22
-1.55898e-19
3.5331e-22
-1.56252e-19
3.5371e-22
-1.56606e-19
3.54111e-22
-1.5696e-19
3.54512e-22
-1.57315e-19
3.54913e-22
-1.5767e-19
3.55313e-22
-1.58026e-19
3.55715e-22
-1.58382e-19
3.56115e-22
-1.58739e-19
3.56516e-22
-1.59096e-19
3.56916e-22
-1.59453e-19
3.57318e-22
-1.59811e-19
3.57718e-22
-1.60169e-19
3.5812e-22
-1.60527e-19
3.5852e-22
-1.60886e-19
3.58921e-22
-1.61246e-19
3.59321e-22
-1.61605e-19
3.59723e-22
-1.61965e-19
3.60123e-22
-1.62326e-19
3.60524e-22
-1.62687e-19
3.60925e-22
-1.63048e-19
3.61326e-22
-1.6341e-19
3.61726e-22
-1.63772e-19
3.62128e-22
-1.64135e-19
3.62528e-22
-1.64498e-19
3.62929e-22
-1.64861e-19
3.63329e-22
-1.65225e-19
3.63731e-22
-1.65589e-19
3.64131e-22
-1.65953e-19
3.64532e-22
-1.66318e-19
3.64933e-22
-1.66684e-19
3.65334e-22
-1.67049e-19
3.65734e-22
-1.67415e-19
3.66136e-22
-1.67782e-19
3.66536e-22
-1.68149e-19
3.66937e-22
-1.68516e-19
3.67337e-22
-1.68884e-19
3.67739e-22
-1.69252e-19
3.68139e-22
-1.69621e-19
3.6854e-22
-1.6999e-19
3.68941e-22
-1.70359e-19
3.69342e-22
-1.70729e-19
3.69742e-22
-1.71099e-19
3.70144e-22
-1.71469e-19
3.70544e-22
-1.7184e-19
3.70945e-22
-1.72212e-19
3.71345e-22
-1.72583e-19
3.71747e-22
-1.72956e-19
3.72147e-22
-1.73328e-19
3.72549e-22
-1.73701e-19
3.72949e-22
-1.74074e-19
3.7335e-22
-1.74448e-19
3.7375e-22
-1.74822e-19
3.74152e-22
-1.75197e-19
3.74552e-22
-1.75572e-19
3.74953e-22
-1.75947e-19
3.75353e-22
-1.76323e-19
3.75755e-22
-1.76699e-19
3.76155e-22
-1.77076e-19
3.76557e-22
-1.77453e-19
3.76957e-22
-1.7783e-19
3.77358e-22
-1.78208e-19
3.77758e-22
-1.78586e-19
3.7816e-22
-1.78964e-19
3.7856e-22
-1.79343e-19
3.78961e-22
-1.79723e-19
3.79361e-22
-1.80102e-19
3.79763e-22
-1.80483e-19
3.80163e-22
-1.80863e-19
3.80565e-22
-1.81244e-19
3.80965e-22
-1.81626e-19
3.81366e-22
-1.82007e-19
3.81766e-22
-1.82389e-19
3.82168e-22
-1.82772e-19
3.82568e-22
-1.83155e-19
3.82969e-22
-1.83538e-19
3.8337e-22
-1.83922e-19
3.83771e-22
-1.84306e-19
3.84171e-22
-1.84691e-19
3.84573e-22
-1.85076e-19
3.84973e-22
-1.85461e-19
3.85374e-22
-1.85847e-19
3.85774e-22
-1.86233e-19
3.86176e-22
-1.8662e-19
3.86576e-22
-1.87007e-19
3.86978e-22
-1.87394e-19
3.87378e-22
-1.87782e-19
3.87779e-22
-1.8817e-19
3.88179e-22
-1.88559e-19
3.88581e-22
-1.88948e-19
3.88981e-22
-1.89337e-19
3.89382e-22
-1.89727e-19
3.89782e-22
-1.90117e-19
3.90184e-22
-1.90508e-19
3.90584e-22
-1.90899e-19
3.90986e-22
-1.9129e-19
3.91386e-22
-1.91682e-19
3.91787e-22
-1.92074e-19
3.92187e-22
-1.92467e-19
3.92589e-22
-1.9286e-19
3.92989e-22
-1.93253e-19
3.9339e-22
-1.93647e-19
3.9379e-22
-1.94041e-19
3.94192e-22
-1.94435e-19
3.94592e-22
-1.9483e-19
3.94994e-22
-1.95226e-19
3.95394e-22
-1.95622e-19
3.95795e-22
-1.96018e-19
3.96195e-22
-1.96414e-19
3.96597e-22
-1.96811e-19
3.96997e-22
-1.97209e-19
3.97398e-22
-1.97607e-19
3.97798e-22
-1.98005e-19
3.982e-22
-1.98403e-19
3.986e-22
-1.98802e-19
3.99002e-22
-1.99202e-19
3.99402e-22
-1.99602e-19
3.99803e-22
-2.00002e-19
4.00203e-22
-2.00402e-19
4.00605e-22
-2.00803e-19
4.01005e-22
-2.01205e-19
4.01407e-22
-2.01607e-19
4.01807e-22
-2.02009e-19
4.02208e-22
-2.02411e-19
4.02608e-22
-2.02814e-19
4.0301e-22
-2.03218e-19
4.0341e-22
-2.03622e-19
4.03811e-22
-2.04026e-19
4.04211e-22
-2.04431e-19
4.04613e-22
-2.04836e-19
4.05013e-22
-2.05241e-19
4.05415e-22
-2.05647e-19
4.05815e-22
-2.06053e-19
4.06216e-22
-2.0646e-19
4.06616e-22
-2.06867e-19
4.07018e-22
-2.07274e-19
4.07418e-22
-2.07682e-19
4.07819e-22
-2.0809e-19
4.08219e-22
-2.08499e-19
4.08621e-22
-2.08908e-19
4.09021e-22
-2.09317e-19
4.09423e-22
-2.09727e-19
4.09823e-22
-2.10137e-19
4.10224e-22
-2.10548e-19
4.10624e-22
-2.10959e-19
4.11026e-22
-2.1137e-19
4.11426e-22
-2.11782e-19
4.11827e-22
-2.12194e-19
4.12227e-22
-2.12607e-19
4.12629e-22
-2.1302e-19
4.13029e-22
-2.13433e-19
4.13431e-22
-2.13847e-19
4.13831e-22
-2.14261e-19
4.14232e-22
-2.14676e-19
4.14632e-22
-2.15091e-19
4.15034e-22
-2.15507e-19
4.15434e-22
-2.15922e-19
4.15836e-22
-2.16339e-19
4.16235e-22
-2.16755e-19
4.16637e-22
-2.17172e-19
4.17037e-22
-2.1759e-19
4.17439e-22
-2.18008e-19
4.17839e-22
-2.18426e-19
4.1824e-22
-2.18844e-19
4.1864e-22
-2.19264e-19
4.19042e-22
-2.19683e-19
4.19442e-22
-2.20103e-19
4.19844e-22
-2.20523e-19
4.20244e-22
-2.20944e-19
4.20645e-22
-2.21365e-19
4.21045e-22
-2.21786e-19
4.21447e-22
-2.22208e-19
4.21847e-22
-2.2263e-19
4.22248e-22
-2.23053e-19
4.22648e-22
-2.23476e-19
4.2305e-22
-2.23899e-19
4.2345e-22
-2.24323e-19
4.23852e-22
-2.24748e-19
4.24252e-22
-2.25172e-19
4.24653e-22
-2.25597e-19
4.25053e-22
-2.26023e-19
4.25455e-22
-2.26449e-19
4.25855e-22
-2.26875e-19
4.26256e-22
-2.27301e-19
4.26656e-22
-2.27729e-19
4.27058e-22
-2.28156e-19
4.27458e-22
-2.28584e-19
4.2786e-22
-2.29012e-19
4.2826e-22
-2.29441e-19
4.28661e-22
-2.2987e-19
4.29061e-22
-2.30299e-19
4.29463e-22
-2.30729e-19
4.29863e-22
-2.31159e-19
4.30265e-22
-2.3159e-19
4.30664e-22
-2.32021e-19
4.31066e-22
-2.32453e-19
4.31466e-22
-2.32884e-19
4.31868e-22
-2.33317e-19
4.32268e-22
-2.33749e-19
4.32669e-22
-2.34182e-19
4.33069e-22
-2.34616e-19
4.33471e-22
-2.3505e-19
4.33871e-22
-2.35484e-19
4.34273e-22
-2.35919e-19
4.34672e-22
-2.36354e-19
4.35074e-22
-2.36789e-19
4.35474e-22
-2.37225e-19
4.35876e-22
-2.37661e-19
4.36276e-22
-2.38098e-19
4.36677e-22
-2.38535e-19
4.37077e-22
-2.38973e-19
4.37479e-22
-2.39411e-19
4.37879e-22
-2.39849e-19
4.38281e-22
-2.40288e-19
4.38681e-22
-2.40727e-19
4.39082e-22
-2.41166e-19
4.39482e-22
-2.41606e-19
4.39884e-22
-2.42046e-19
4.40284e-22
-2.42487e-19
4.40686e-22
-2.42928e-19
4.41085e-22
-2.4337e-19
4.41487e-22
-2.43811e-19
4.41887e-22
-2.44254e-19
4.42289e-22
-2.44696e-19
4.42689e-22
-2.45139e-19
4.4309e-22
-2.45583e-19
4.4349e-22
-2.46027e-19
4.43892e-22
-2.46471e-19
4.44292e-22
-2.46916e-19
4.44694e-22
-2.47361e-19
4.45093e-22
-2.47806e-19
4.45495e-22
-2.48252e-19
4.45895e-22
-2.48699e-19
4.46297e-22
-2.49145e-19
4.46697e-22
-2.49592e-19
4.47098e-22
-2.5004e-19
4.47498e-22
-2.50488e-19
4.479e-22
-2.50936e-19
4.483e-22
-2.51385e-19
4.48702e-22
-2.51834e-19
4.49101e-22
-2.52283e-19
4.49503e-22
-2.52733e-19
4.49903e-22
-2.53184e-19
4.50305e-22
-2.53634e-19
4.50705e-22
-2.54085e-19
4.51106e-22
-2.54537e-19
4.51506e-22
-2.54989e-19
4.51908e-22
-2.55441e-19
4.52308e-22
-2.55894e-19
4.5271e-22
-2.56347e-19
4.53109e-22
-2.568e-19
4.53511e-22
-2.57254e-19
4.53911e-22
-2.57709e-19
4.54313e-22
-2.58163e-19
4.54713e-22
-2.58619e-19
4.55114e-22
-2.59074e-19
4.55514e-22
-2.5953e-19
4.55916e-22
-2.59986e-19
4.56316e-22
-2.60443e-19
4.56718e-22
-2.609e-19
4.57117e-22
-2.61358e-19
4.57519e-22
-2.61816e-19
4.57919e-22
-2.62274e-19
4.58321e-22
-2.62733e-19
4.58721e-22
-2.63192e-19
4.59123e-22
-2.63651e-19
4.59522e-22
-2.64111e-19
4.59924e-22
-2.64571e-19
4.60324e-22
-2.65032e-19
4.60726e-22
-2.65493e-19
4.61126e-22
-2.65955e-19
4.61527e-22
-2.66417e-19
4.61927e-22
-2.66879e-19
4.62329e-22
-2.67342e-19
4.62729e-22
-2.67805e-19
4.63131e-22
-2.68269e-19
4.6353e-22
-2.68732e-19
4.63932e-22
-2.69197e-19
4.64332e-22
-2.69662e-19
4.64734e-22
-2.70127e-19
4.65134e-22
-2.70592e-19
4.65535e-22
-2.71058e-19
4.65935e-22
-2.71524e-19
4.66337e-22
-2.71991e-19
4.66737e-22
-2.72458e-19
4.67139e-22
-2.72926e-19
4.67538e-22
-2.73394e-19
4.6794e-22
-2.73862e-19
4.6834e-22
-2.74331e-19
4.68742e-22
-2.748e-19
4.69142e-22
-2.7527e-19
4.69544e-22
-2.7574e-19
4.69943e-22