/*--------------------------------*- C++ -*----------------------------------*\
| =========                 |                                                 |
| \\      /  F ield         | OpenFOAM: The Open Source CFD Toolbox           |
|  \\    /   O peration     | Version:  2206                                  |
|   \\  /    A nd           | Website:  www.openfoam.com                      |
|    \\/     M anipulation  |                                                 |
\*---------------------------------------------------------------------------*/
FoamFile
{
    version     2.0;
    format      ascii;
    arch        "LSB;label=32;scalar=64";
    class       volVectorField;
    location    "90";
    object      U;
}
// * * * * * * * * * * * * * * * * * * * * * * * * * * * * * * * * * * * * * //

dimensions      [0 1 -1 0 0 0 0];

internalField   nonuniform List<vector> 
50000
(
(-1.1099e-12 2.41333e-06 8.42701e-13)
(-2.89451e-12 6.26092e-06 8.86889e-14)
(-4.81309e-12 1.01852e-05 4.86459e-14)
(-6.52074e-12 1.41652e-05 6.68268e-14)
(-8.21148e-12 1.81635e-05 6.46531e-14)
(-9.98877e-12 2.21697e-05 6.87608e-14)
(-1.17902e-11 2.618e-05 6.31069e-14)
(-1.35598e-11 3.01929e-05 6.66747e-14)
(-1.5335e-11 3.42074e-05 6.54565e-14)
(-1.71218e-11 3.82231e-05 6.65192e-14)
(-1.89161e-11 4.22395e-05 6.49591e-14)
(-2.07021e-11 4.62565e-05 6.62771e-14)
(-2.24912e-11 5.02739e-05 6.53637e-14)
(-2.42858e-11 5.42917e-05 6.60061e-14)
(-2.60743e-11 5.83097e-05 6.54671e-14)
(-2.78706e-11 6.2328e-05 6.58833e-14)
(-2.96599e-11 6.63465e-05 6.55642e-14)
(-3.14563e-11 7.03651e-05 6.58237e-14)
(-3.32475e-11 7.43838e-05 6.55682e-14)
(-3.50434e-11 7.84027e-05 6.58045e-14)
(-3.68355e-11 8.24216e-05 6.55964e-14)
(-3.86316e-11 8.64406e-05 6.5767e-14)
(-4.04244e-11 9.04597e-05 6.56146e-14)
(-4.22202e-11 9.44788e-05 6.57498e-14)
(-4.40137e-11 9.8498e-05 6.56237e-14)
(-4.58094e-11 0.000102517 6.57369e-14)
(-4.76034e-11 0.000106537 6.5631e-14)
(-4.93989e-11 0.000110556 6.57263e-14)
(-5.11933e-11 0.000114575 6.56366e-14)
(-5.29888e-11 0.000118595 6.57188e-14)
(-5.47834e-11 0.000122614 6.56407e-14)
(-5.65789e-11 0.000126633 6.57122e-14)
(-5.83737e-11 0.000130653 6.56446e-14)
(-6.01692e-11 0.000134672 6.57067e-14)
(-6.19642e-11 0.000138692 6.56477e-14)
(-6.37596e-11 0.000142711 6.57021e-14)
(-6.55547e-11 0.000146731 6.56504e-14)
(-6.73502e-11 0.00015075 6.56981e-14)
(-6.91454e-11 0.00015477 6.56528e-14)
(-7.09409e-11 0.000158789 6.56948e-14)
(-7.27361e-11 0.000162809 6.56547e-14)
(-7.45316e-11 0.000166828 6.56921e-14)
(-7.63269e-11 0.000170848 6.56563e-14)
(-7.81225e-11 0.000174868 6.56897e-14)
(-7.99178e-11 0.000178887 6.56576e-14)
(-8.17133e-11 0.000182907 6.56877e-14)
(-8.35087e-11 0.000186926 6.56588e-14)
(-8.53043e-11 0.000190946 6.56859e-14)
(-8.70997e-11 0.000194966 6.56598e-14)
(-8.88953e-11 0.000198985 6.56844e-14)
(-9.06907e-11 0.000203005 6.56607e-14)
(-9.24863e-11 0.000207025 6.5683e-14)
(-9.42818e-11 0.000211044 6.56615e-14)
(-9.60773e-11 0.000215064 6.56818e-14)
(-9.78728e-11 0.000219084 6.56622e-14)
(-9.96684e-11 0.000223103 6.56808e-14)
(-1.01464e-10 0.000227123 6.56628e-14)
(-1.0326e-10 0.000231143 6.56798e-14)
(-1.05055e-10 0.000235162 6.56633e-14)
(-1.06851e-10 0.000239182 6.5679e-14)
(-1.08646e-10 0.000243202 6.56638e-14)
(-1.10442e-10 0.000247221 6.56782e-14)
(-1.12237e-10 0.000251241 6.56642e-14)
(-1.14033e-10 0.000255261 6.56775e-14)
(-1.15829e-10 0.00025928 6.56646e-14)
(-1.17624e-10 0.0002633 6.56769e-14)
(-1.1942e-10 0.00026732 6.5665e-14)
(-1.21215e-10 0.000271339 6.56764e-14)
(-1.23011e-10 0.000275359 6.56653e-14)
(-1.24807e-10 0.000279379 6.56759e-14)
(-1.26602e-10 0.000283398 6.56656e-14)
(-1.28398e-10 0.000287418 6.56754e-14)
(-1.30193e-10 0.000291438 6.56658e-14)
(-1.31989e-10 0.000295458 6.5675e-14)
(-1.33785e-10 0.000299477 6.5666e-14)
(-1.3558e-10 0.000303497 6.56746e-14)
(-1.37376e-10 0.000307517 6.56663e-14)
(-1.39172e-10 0.000311536 6.56743e-14)
(-1.40967e-10 0.000315556 6.56665e-14)
(-1.42763e-10 0.000319576 6.5674e-14)
(-1.44558e-10 0.000323596 6.56666e-14)
(-1.46354e-10 0.000327615 6.56737e-14)
(-1.4815e-10 0.000331635 6.56668e-14)
(-1.49945e-10 0.000335655 6.56734e-14)
(-1.51741e-10 0.000339674 6.56669e-14)
(-1.53537e-10 0.000343694 6.56732e-14)
(-1.55332e-10 0.000347714 6.56671e-14)
(-1.57128e-10 0.000351734 6.56729e-14)
(-1.58924e-10 0.000355753 6.56672e-14)
(-1.60719e-10 0.000359773 6.56727e-14)
(-1.62515e-10 0.000363793 6.56673e-14)
(-1.64311e-10 0.000367813 6.56725e-14)
(-1.66106e-10 0.000371832 6.56674e-14)
(-1.67902e-10 0.000375852 6.56724e-14)
(-1.69698e-10 0.000379872 6.56675e-14)
(-1.71493e-10 0.000383891 6.56722e-14)
(-1.73289e-10 0.000387911 6.56676e-14)
(-1.75085e-10 0.000391931 6.5672e-14)
(-1.7688e-10 0.000395951 6.56677e-14)
(-1.78676e-10 0.00039997 6.56719e-14)
(-1.80472e-10 0.00040399 6.56678e-14)
(-1.82267e-10 0.00040801 6.56717e-14)
(-1.84063e-10 0.00041203 6.56679e-14)
(-1.85859e-10 0.000416049 6.56716e-14)
(-1.87654e-10 0.000420069 6.56679e-14)
(-1.8945e-10 0.000424089 6.56715e-14)
(-1.91246e-10 0.000428109 6.5668e-14)
(-1.93041e-10 0.000432128 6.56714e-14)
(-1.94837e-10 0.000436148 6.56681e-14)
(-1.96633e-10 0.000440168 6.56713e-14)
(-1.98428e-10 0.000444187 6.56681e-14)
(-2.00224e-10 0.000448207 6.56712e-14)
(-2.0202e-10 0.000452227 6.56682e-14)
(-2.03815e-10 0.000456247 6.56711e-14)
(-2.05611e-10 0.000460266 6.56682e-14)
(-2.07407e-10 0.000464286 6.5671e-14)
(-2.09202e-10 0.000468306 6.56683e-14)
(-2.10998e-10 0.000472326 6.56709e-14)
(-2.12794e-10 0.000476345 6.56683e-14)
(-2.14589e-10 0.000480365 6.56708e-14)
(-2.16385e-10 0.000484385 6.56683e-14)
(-2.18181e-10 0.000488405 6.56708e-14)
(-2.19976e-10 0.000492424 6.56684e-14)
(-2.21772e-10 0.000496444 6.56707e-14)
(-2.23568e-10 0.000500464 6.56684e-14)
(-2.25363e-10 0.000504484 6.56706e-14)
(-2.27159e-10 0.000508503 6.56685e-14)
(-2.28955e-10 0.000512523 6.56706e-14)
(-2.3075e-10 0.000516543 6.56685e-14)
(-2.32546e-10 0.000520563 6.56705e-14)
(-2.34342e-10 0.000524582 6.56685e-14)
(-2.36137e-10 0.000528602 6.56705e-14)
(-2.37933e-10 0.000532622 6.56685e-14)
(-2.39729e-10 0.000536642 6.56704e-14)
(-2.41524e-10 0.000540661 6.56686e-14)
(-2.4332e-10 0.000544681 6.56704e-14)
(-2.45116e-10 0.000548701 6.56686e-14)
(-2.46912e-10 0.000552721 6.56703e-14)
(-2.48707e-10 0.00055674 6.56686e-14)
(-2.50503e-10 0.00056076 6.56703e-14)
(-2.52299e-10 0.00056478 6.56686e-14)
(-2.54094e-10 0.0005688 6.56702e-14)
(-2.5589e-10 0.000572819 6.56687e-14)
(-2.57686e-10 0.000576839 6.56702e-14)
(-2.59481e-10 0.000580859 6.56687e-14)
(-2.61277e-10 0.000584879 6.56701e-14)
(-2.63073e-10 0.000588898 6.56687e-14)
(-2.64868e-10 0.000592918 6.56701e-14)
(-2.66664e-10 0.000596938 6.56687e-14)
(-2.6846e-10 0.000600958 6.56701e-14)
(-2.70255e-10 0.000604977 6.56688e-14)
(-2.72051e-10 0.000608997 6.567e-14)
(-2.73847e-10 0.000613017 6.56688e-14)
(-2.75642e-10 0.000617037 6.567e-14)
(-2.77438e-10 0.000621056 6.56688e-14)
(-2.79234e-10 0.000625076 6.567e-14)
(-2.8103e-10 0.000629096 6.56688e-14)
(-2.82825e-10 0.000633116 6.56699e-14)
(-2.84621e-10 0.000637135 6.56688e-14)
(-2.86417e-10 0.000641155 6.56699e-14)
(-2.88212e-10 0.000645175 6.56688e-14)
(-2.90008e-10 0.000649195 6.56699e-14)
(-2.91804e-10 0.000653215 6.56688e-14)
(-2.93599e-10 0.000657234 6.56699e-14)
(-2.95395e-10 0.000661254 6.56689e-14)
(-2.97191e-10 0.000665274 6.56698e-14)
(-2.98986e-10 0.000669294 6.56689e-14)
(-3.00782e-10 0.000673313 6.56698e-14)
(-3.02578e-10 0.000677333 6.56689e-14)
(-3.04374e-10 0.000681353 6.56698e-14)
(-3.06169e-10 0.000685373 6.56689e-14)
(-3.07965e-10 0.000689392 6.56698e-14)
(-3.09761e-10 0.000693412 6.56689e-14)
(-3.11556e-10 0.000697432 6.56698e-14)
(-3.13352e-10 0.000701452 6.56689e-14)
(-3.15148e-10 0.000705471 6.56697e-14)
(-3.16943e-10 0.000709491 6.56689e-14)
(-3.18739e-10 0.000713511 6.56697e-14)
(-3.20535e-10 0.000717531 6.56689e-14)
(-3.2233e-10 0.00072155 6.56697e-14)
(-3.24126e-10 0.00072557 6.56689e-14)
(-3.25922e-10 0.00072959 6.56697e-14)
(-3.27718e-10 0.00073361 6.5669e-14)
(-3.29513e-10 0.000737629 6.56697e-14)
(-3.31309e-10 0.000741649 6.5669e-14)
(-3.33105e-10 0.000745669 6.56696e-14)
(-3.349e-10 0.000749689 6.5669e-14)
(-3.36696e-10 0.000753708 6.56696e-14)
(-3.38492e-10 0.000757728 6.5669e-14)
(-3.40287e-10 0.000761748 6.56696e-14)
(-3.42083e-10 0.000765768 6.5669e-14)
(-3.43879e-10 0.000769787 6.56696e-14)
(-3.45674e-10 0.000773807 6.5669e-14)
(-3.4747e-10 0.000777827 6.56696e-14)
(-3.49266e-10 0.000781847 6.5669e-14)
(-3.51062e-10 0.000785867 6.56696e-14)
(-3.52857e-10 0.000789886 6.5669e-14)
(-3.54653e-10 0.000793906 6.56696e-14)
(-3.56449e-10 0.000797926 6.5669e-14)
(-3.58244e-10 0.000801946 6.56696e-14)
(-3.6004e-10 0.000805965 6.5669e-14)
(-3.61836e-10 0.000809985 6.56695e-14)
(-3.63631e-10 0.000814005 6.5669e-14)
(-3.65427e-10 0.000818025 6.56695e-14)
(-3.67223e-10 0.000822044 6.5669e-14)
(-3.69018e-10 0.000826064 6.56695e-14)
(-3.70814e-10 0.000830084 6.5669e-14)
(-3.7261e-10 0.000834104 6.56695e-14)
(-3.74406e-10 0.000838123 6.5669e-14)
(-3.76201e-10 0.000842143 6.56695e-14)
(-3.77997e-10 0.000846163 6.5669e-14)
(-3.79793e-10 0.000850183 6.56695e-14)
(-3.81588e-10 0.000854202 6.5669e-14)
(-3.83384e-10 0.000858222 6.56695e-14)
(-3.8518e-10 0.000862242 6.5669e-14)
(-3.86975e-10 0.000866262 6.56695e-14)
(-3.88771e-10 0.000870282 6.56691e-14)
(-3.90567e-10 0.000874301 6.56695e-14)
(-3.92363e-10 0.000878321 6.56691e-14)
(-3.94158e-10 0.000882341 6.56695e-14)
(-3.95954e-10 0.000886361 6.56691e-14)
(-3.9775e-10 0.00089038 6.56694e-14)
(-3.99545e-10 0.0008944 6.56691e-14)
(-4.01341e-10 0.00089842 6.56694e-14)
(-4.03137e-10 0.00090244 6.56691e-14)
(-4.04932e-10 0.000906459 6.56694e-14)
(-4.06728e-10 0.000910479 6.56691e-14)
(-4.08524e-10 0.000914499 6.56694e-14)
(-4.10319e-10 0.000918519 6.56691e-14)
(-4.12115e-10 0.000922538 6.56694e-14)
(-4.13911e-10 0.000926558 6.56691e-14)
(-4.15707e-10 0.000930578 6.56694e-14)
(-4.17502e-10 0.000934598 6.56691e-14)
(-4.19298e-10 0.000938617 6.56694e-14)
(-4.21094e-10 0.000942637 6.56691e-14)
(-4.22889e-10 0.000946657 6.56694e-14)
(-4.24685e-10 0.000950677 6.56691e-14)
(-4.26481e-10 0.000954697 6.56694e-14)
(-4.28276e-10 0.000958716 6.56691e-14)
(-4.30072e-10 0.000962736 6.56694e-14)
(-4.31868e-10 0.000966756 6.56691e-14)
(-4.33664e-10 0.000970776 6.56694e-14)
(-4.35459e-10 0.000974795 6.56691e-14)
(-4.37255e-10 0.000978815 6.56694e-14)
(-4.39051e-10 0.000982835 6.56691e-14)
(-4.40846e-10 0.000986855 6.56694e-14)
(-4.42642e-10 0.000990874 6.56691e-14)
(-4.44438e-10 0.000994894 6.56694e-14)
(-4.46233e-10 0.000998914 6.56691e-14)
(-4.48029e-10 0.00100293 6.56693e-14)
(-4.49825e-10 0.00100695 6.56691e-14)
(-4.51621e-10 0.00101097 6.56694e-14)
(-4.53416e-10 0.00101499 6.56691e-14)
(-4.55212e-10 0.00101901 6.56693e-14)
(-4.57008e-10 0.00102303 6.56691e-14)
(-4.58803e-10 0.00102705 6.56693e-14)
(-4.60599e-10 0.00103107 6.56691e-14)
(-4.62395e-10 0.00103509 6.56693e-14)
(-4.6419e-10 0.00103911 6.56691e-14)
(-4.65986e-10 0.00104313 6.56693e-14)
(-4.67782e-10 0.00104715 6.56691e-14)
(-4.69578e-10 0.00105117 6.56693e-14)
(-4.71373e-10 0.00105519 6.56691e-14)
(-4.73169e-10 0.00105921 6.56693e-14)
(-4.74965e-10 0.00106323 6.56691e-14)
(-4.7676e-10 0.00106725 6.56693e-14)
(-4.78556e-10 0.00107127 6.56691e-14)
(-4.80352e-10 0.00107529 6.56693e-14)
(-4.82147e-10 0.00107931 6.56691e-14)
(-4.83943e-10 0.00108333 6.56693e-14)
(-4.85739e-10 0.00108735 6.56691e-14)
(-4.87535e-10 0.00109137 6.56693e-14)
(-4.8933e-10 0.00109539 6.56691e-14)
(-4.91126e-10 0.00109941 6.56693e-14)
(-4.92922e-10 0.00110343 6.56691e-14)
(-4.94717e-10 0.00110745 6.56693e-14)
(-4.96513e-10 0.00111147 6.56691e-14)
(-4.98309e-10 0.00111549 6.56693e-14)
(-5.00104e-10 0.00111951 6.56691e-14)
(-5.019e-10 0.00112353 6.56693e-14)
(-5.03696e-10 0.00112755 6.56691e-14)
(-5.05491e-10 0.00113157 6.56693e-14)
(-5.07287e-10 0.00113559 6.56691e-14)
(-5.09083e-10 0.00113961 6.56693e-14)
(-5.10879e-10 0.00114363 6.56691e-14)
(-5.12674e-10 0.00114765 6.56693e-14)
(-5.1447e-10 0.00115166 6.56691e-14)
(-5.16266e-10 0.00115568 6.56693e-14)
(-5.18061e-10 0.0011597 6.56691e-14)
(-5.19857e-10 0.00116372 6.56693e-14)
(-5.21653e-10 0.00116774 6.56691e-14)
(-5.23448e-10 0.00117176 6.56693e-14)
(-5.25244e-10 0.00117578 6.56691e-14)
(-5.2704e-10 0.0011798 6.56693e-14)
(-5.28836e-10 0.00118382 6.56691e-14)
(-5.30631e-10 0.00118784 6.56693e-14)
(-5.32427e-10 0.00119186 6.56691e-14)
(-5.34223e-10 0.00119588 6.56693e-14)
(-5.36018e-10 0.0011999 6.56691e-14)
(-5.37814e-10 0.00120392 6.56693e-14)
(-5.3961e-10 0.00120794 6.56691e-14)
(-5.41405e-10 0.00121196 6.56693e-14)
(-5.43201e-10 0.00121598 6.56691e-14)
(-5.44997e-10 0.00122 6.56693e-14)
(-5.46793e-10 0.00122402 6.56691e-14)
(-5.48588e-10 0.00122804 6.56693e-14)
(-5.50384e-10 0.00123206 6.56691e-14)
(-5.5218e-10 0.00123608 6.56693e-14)
(-5.53975e-10 0.0012401 6.56692e-14)
(-5.55771e-10 0.00124412 6.56693e-14)
(-5.57567e-10 0.00124814 6.56691e-14)
(-5.59362e-10 0.00125216 6.56693e-14)
(-5.61158e-10 0.00125618 6.56692e-14)
(-5.62954e-10 0.0012602 6.56693e-14)
(-5.6475e-10 0.00126422 6.56692e-14)
(-5.66545e-10 0.00126824 6.56692e-14)
(-5.68341e-10 0.00127226 6.56692e-14)
(-5.70137e-10 0.00127628 6.56692e-14)
(-5.71932e-10 0.0012803 6.56692e-14)
(-5.73728e-10 0.00128432 6.56692e-14)
(-5.75524e-10 0.00128834 6.56692e-14)
(-5.77319e-10 0.00129236 6.56692e-14)
(-5.79115e-10 0.00129638 6.56692e-14)
(-5.80911e-10 0.0013004 6.56692e-14)
(-5.82707e-10 0.00130442 6.56692e-14)
(-5.84502e-10 0.00130844 6.56692e-14)
(-5.86298e-10 0.00131246 6.56692e-14)
(-5.88094e-10 0.00131648 6.56692e-14)
(-5.89889e-10 0.0013205 6.56692e-14)
(-5.91685e-10 0.00132451 6.56692e-14)
(-5.93481e-10 0.00132853 6.56692e-14)
(-5.95276e-10 0.00133255 6.56692e-14)
(-5.97072e-10 0.00133657 6.56692e-14)
(-5.98868e-10 0.00134059 6.56692e-14)
(-6.00664e-10 0.00134461 6.56692e-14)
(-6.02459e-10 0.00134863 6.56692e-14)
(-6.04255e-10 0.00135265 6.56692e-14)
(-6.06051e-10 0.00135667 6.56692e-14)
(-6.07846e-10 0.00136069 6.56692e-14)
(-6.09642e-10 0.00136471 6.56692e-14)
(-6.11438e-10 0.00136873 6.56692e-14)
(-6.13233e-10 0.00137275 6.56692e-14)
(-6.15029e-10 0.00137677 6.56692e-14)
(-6.16825e-10 0.00138079 6.56692e-14)
(-6.18621e-10 0.00138481 6.56692e-14)
(-6.20416e-10 0.00138883 6.56692e-14)
(-6.22212e-10 0.00139285 6.56692e-14)
(-6.24008e-10 0.00139687 6.56692e-14)
(-6.25803e-10 0.00140089 6.56692e-14)
(-6.27599e-10 0.00140491 6.56692e-14)
(-6.29395e-10 0.00140893 6.56692e-14)
(-6.31191e-10 0.00141295 6.56692e-14)
(-6.32986e-10 0.00141697 6.56692e-14)
(-6.34782e-10 0.00142099 6.56692e-14)
(-6.36578e-10 0.00142501 6.56692e-14)
(-6.38373e-10 0.00142903 6.56692e-14)
(-6.40169e-10 0.00143305 6.56692e-14)
(-6.41965e-10 0.00143707 6.56692e-14)
(-6.4376e-10 0.00144109 6.56692e-14)
(-6.45556e-10 0.00144511 6.56692e-14)
(-6.47352e-10 0.00144913 6.56692e-14)
(-6.49148e-10 0.00145315 6.56692e-14)
(-6.50943e-10 0.00145717 6.56692e-14)
(-6.52739e-10 0.00146119 6.56692e-14)
(-6.54535e-10 0.00146521 6.56692e-14)
(-6.5633e-10 0.00146923 6.56692e-14)
(-6.58126e-10 0.00147325 6.56692e-14)
(-6.59922e-10 0.00147727 6.56692e-14)
(-6.61717e-10 0.00148129 6.56692e-14)
(-6.63513e-10 0.00148531 6.56692e-14)
(-6.65309e-10 0.00148933 6.56692e-14)
(-6.67105e-10 0.00149335 6.56692e-14)
(-6.689e-10 0.00149736 6.56692e-14)
(-6.70696e-10 0.00150138 6.56692e-14)
(-6.72492e-10 0.0015054 6.56692e-14)
(-6.74287e-10 0.00150942 6.56692e-14)
(-6.76083e-10 0.00151344 6.56692e-14)
(-6.77879e-10 0.00151746 6.56692e-14)
(-6.79674e-10 0.00152148 6.56692e-14)
(-6.8147e-10 0.0015255 6.56692e-14)
(-6.83266e-10 0.00152952 6.56692e-14)
(-6.85062e-10 0.00153354 6.56692e-14)
(-6.86857e-10 0.00153756 6.56692e-14)
(-6.88653e-10 0.00154158 6.56692e-14)
(-6.90449e-10 0.0015456 6.56692e-14)
(-6.92244e-10 0.00154962 6.56692e-14)
(-6.9404e-10 0.00155364 6.56692e-14)
(-6.95836e-10 0.00155766 6.56692e-14)
(-6.97631e-10 0.00156168 6.56692e-14)
(-6.99427e-10 0.0015657 6.56692e-14)
(-7.01223e-10 0.00156972 6.56692e-14)
(-7.03019e-10 0.00157374 6.56692e-14)
(-7.04814e-10 0.00157776 6.56692e-14)
(-7.0661e-10 0.00158178 6.56692e-14)
(-7.08406e-10 0.0015858 6.56692e-14)
(-7.10201e-10 0.00158982 6.56692e-14)
(-7.11997e-10 0.00159384 6.56692e-14)
(-7.13793e-10 0.00159786 6.56692e-14)
(-7.15588e-10 0.00160188 6.56692e-14)
(-7.17384e-10 0.0016059 6.56692e-14)
(-7.1918e-10 0.00160992 6.56692e-14)
(-7.20976e-10 0.00161394 6.56692e-14)
(-7.22771e-10 0.00161796 6.56692e-14)
(-7.24567e-10 0.00162198 6.56692e-14)
(-7.26363e-10 0.001626 6.56692e-14)
(-7.28158e-10 0.00163002 6.56692e-14)
(-7.29954e-10 0.00163404 6.56692e-14)
(-7.3175e-10 0.00163806 6.56692e-14)
(-7.33545e-10 0.00164208 6.56692e-14)
(-7.35341e-10 0.0016461 6.56692e-14)
(-7.37137e-10 0.00165012 6.56692e-14)
(-7.38933e-10 0.00165414 6.56692e-14)
(-7.40728e-10 0.00165816 6.56692e-14)
(-7.42524e-10 0.00166218 6.56692e-14)
(-7.4432e-10 0.0016662 6.56692e-14)
(-7.46115e-10 0.00167021 6.56692e-14)
(-7.47911e-10 0.00167423 6.56692e-14)
(-7.49707e-10 0.00167825 6.56692e-14)
(-7.51502e-10 0.00168227 6.56692e-14)
(-7.53298e-10 0.00168629 6.56692e-14)
(-7.55094e-10 0.00169031 6.56692e-14)
(-7.5689e-10 0.00169433 6.56692e-14)
(-7.58685e-10 0.00169835 6.56692e-14)
(-7.60481e-10 0.00170237 6.56692e-14)
(-7.62277e-10 0.00170639 6.56692e-14)
(-7.64072e-10 0.00171041 6.56692e-14)
(-7.65868e-10 0.00171443 6.56692e-14)
(-7.67664e-10 0.00171845 6.56692e-14)
(-7.69459e-10 0.00172247 6.56692e-14)
(-7.71255e-10 0.00172649 6.56692e-14)
(-7.73051e-10 0.00173051 6.56692e-14)
(-7.74847e-10 0.00173453 6.56692e-14)
(-7.76642e-10 0.00173855 6.56692e-14)
(-7.78438e-10 0.00174257 6.56692e-14)
(-7.80234e-10 0.00174659 6.56692e-14)
(-7.82029e-10 0.00175061 6.56692e-14)
(-7.83825e-10 0.00175463 6.56692e-14)
(-7.85621e-10 0.00175865 6.56692e-14)
(-7.87417e-10 0.00176267 6.56692e-14)
(-7.89212e-10 0.00176669 6.56692e-14)
(-7.91008e-10 0.00177071 6.56692e-14)
(-7.92804e-10 0.00177473 6.56692e-14)
(-7.94599e-10 0.00177875 6.56692e-14)
(-7.96395e-10 0.00178277 6.56692e-14)
(-7.98191e-10 0.00178679 6.56692e-14)
(-7.99986e-10 0.00179081 6.56692e-14)
(-8.01782e-10 0.00179483 6.56692e-14)
(-8.03578e-10 0.00179885 6.56692e-14)
(-8.05374e-10 0.00180287 6.56692e-14)
(-8.07169e-10 0.00180689 6.56692e-14)
(-8.08965e-10 0.00181091 6.56692e-14)
(-8.10761e-10 0.00181493 6.56692e-14)
(-8.12556e-10 0.00181895 6.56692e-14)
(-8.14352e-10 0.00182297 6.56692e-14)
(-8.16148e-10 0.00182699 6.56692e-14)
(-8.17943e-10 0.00183101 6.56692e-14)
(-8.19739e-10 0.00183503 6.56692e-14)
(-8.21535e-10 0.00183905 6.56692e-14)
(-8.23331e-10 0.00184306 6.56692e-14)
(-8.25126e-10 0.00184708 6.56692e-14)
(-8.26922e-10 0.0018511 6.56692e-14)
(-8.28718e-10 0.00185512 6.56692e-14)
(-8.30513e-10 0.00185914 6.56692e-14)
(-8.32309e-10 0.00186316 6.56692e-14)
(-8.34105e-10 0.00186718 6.56692e-14)
(-8.359e-10 0.0018712 6.56692e-14)
(-8.37696e-10 0.00187522 6.56692e-14)
(-8.39492e-10 0.00187924 6.56692e-14)
(-8.41288e-10 0.00188326 6.56692e-14)
(-8.43083e-10 0.00188728 6.56692e-14)
(-8.44879e-10 0.0018913 6.56692e-14)
(-8.46675e-10 0.00189532 6.56692e-14)
(-8.4847e-10 0.00189934 6.56692e-14)
(-8.50266e-10 0.00190336 6.56692e-14)
(-8.52062e-10 0.00190738 6.56692e-14)
(-8.53857e-10 0.0019114 6.56692e-14)
(-8.55653e-10 0.00191542 6.56692e-14)
(-8.57449e-10 0.00191944 6.56692e-14)
(-8.59245e-10 0.00192346 6.56692e-14)
(-8.6104e-10 0.00192748 6.56692e-14)
(-8.62836e-10 0.0019315 6.56692e-14)
(-8.64632e-10 0.00193552 6.56692e-14)
(-8.66427e-10 0.00193954 6.56692e-14)
(-8.68223e-10 0.00194356 6.56692e-14)
(-8.70019e-10 0.00194758 6.56692e-14)
(-8.71814e-10 0.0019516 6.56692e-14)
(-8.7361e-10 0.00195562 6.56692e-14)
(-8.75406e-10 0.00195964 6.56692e-14)
(-8.77202e-10 0.00196366 6.56692e-14)
(-8.78997e-10 0.00196768 6.56692e-14)
(-8.80793e-10 0.0019717 6.56692e-14)
(-8.82589e-10 0.00197572 6.56692e-14)
(-8.84384e-10 0.00197974 6.56692e-14)
(-8.8618e-10 0.00198376 6.56692e-14)
(-8.87976e-10 0.00198778 6.56692e-14)
(-8.89772e-10 0.0019918 6.56692e-14)
(-8.91567e-10 0.00199582 6.56692e-14)
(-8.93363e-10 0.00199984 6.56692e-14)
(-8.95159e-10 0.00200386 6.56692e-14)
(-8.96954e-10 0.00200788 6.56692e-14)
(-8.9875e-10 0.0020119 6.56692e-14)
(-9.00546e-10 0.00201591 6.56692e-14)
(-9.02341e-10 0.00201993 6.56692e-14)
(-9.04137e-10 0.00202395 6.56692e-14)
(-9.05933e-10 0.00202797 6.56692e-14)
(-9.07729e-10 0.00203199 6.56692e-14)
(-9.09524e-10 0.00203601 6.56692e-14)
(-9.1132e-10 0.00204003 6.56692e-14)
(-9.13116e-10 0.00204405 6.56692e-14)
(-9.14911e-10 0.00204807 6.56692e-14)
(-9.16707e-10 0.00205209 6.56692e-14)
(-9.18503e-10 0.00205611 6.56692e-14)
(-9.20298e-10 0.00206013 6.56692e-14)
(-9.22094e-10 0.00206415 6.56692e-14)
(-9.2389e-10 0.00206817 6.56692e-14)
(-9.25686e-10 0.00207219 6.56692e-14)
(-9.27481e-10 0.00207621 6.56692e-14)
(-9.29277e-10 0.00208023 6.56692e-14)
(-9.31073e-10 0.00208425 6.56692e-14)
(-9.32868e-10 0.00208827 6.56692e-14)
(-9.34664e-10 0.00209229 6.56692e-14)
(-9.3646e-10 0.00209631 6.56692e-14)
(-9.38255e-10 0.00210033 6.56692e-14)
(-9.40051e-10 0.00210435 6.56692e-14)
(-9.41847e-10 0.00210837 6.56692e-14)
(-9.43643e-10 0.00211239 6.56692e-14)
(-9.45438e-10 0.00211641 6.56692e-14)
(-9.47234e-10 0.00212043 6.56692e-14)
(-9.4903e-10 0.00212445 6.56692e-14)
(-9.50825e-10 0.00212847 6.56692e-14)
(-9.52621e-10 0.00213249 6.56692e-14)
(-9.54417e-10 0.00213651 6.56692e-14)
(-9.56212e-10 0.00214053 6.56692e-14)
(-9.58008e-10 0.00214455 6.56692e-14)
(-9.59804e-10 0.00214857 6.56692e-14)
(-9.616e-10 0.00215259 6.56692e-14)
(-9.63395e-10 0.00215661 6.56692e-14)
(-9.65191e-10 0.00216063 6.56692e-14)
(-9.66987e-10 0.00216465 6.56692e-14)
(-9.68782e-10 0.00216867 6.56692e-14)
(-9.70578e-10 0.00217269 6.56692e-14)
(-9.72374e-10 0.00217671 6.56692e-14)
(-9.7417e-10 0.00218073 6.56692e-14)
(-9.75965e-10 0.00218475 6.56692e-14)
(-9.77761e-10 0.00218876 6.56692e-14)
(-9.79557e-10 0.00219278 6.56692e-14)
(-9.81352e-10 0.0021968 6.56692e-14)
(-9.83148e-10 0.00220082 6.56692e-14)
(-9.84944e-10 0.00220484 6.56692e-14)
(-9.86739e-10 0.00220886 6.56692e-14)
(-9.88535e-10 0.00221288 6.56692e-14)
(-9.90331e-10 0.0022169 6.56692e-14)
(-9.92127e-10 0.00222092 6.56692e-14)
(-9.93922e-10 0.00222494 6.56692e-14)
(-9.95718e-10 0.00222896 6.56692e-14)
(-9.97514e-10 0.00223298 6.56692e-14)
(-9.99309e-10 0.002237 6.56692e-14)
(-1.00111e-09 0.00224102 6.56692e-14)
(-1.0029e-09 0.00224504 6.56692e-14)
(-1.0047e-09 0.00224906 6.56692e-14)
(-1.00649e-09 0.00225308 6.56692e-14)
(-1.00829e-09 0.0022571 6.56692e-14)
(-1.01008e-09 0.00226112 6.56692e-14)
(-1.01188e-09 0.00226514 6.56692e-14)
(-1.01367e-09 0.00226916 6.56692e-14)
(-1.01547e-09 0.00227318 6.56692e-14)
(-1.01727e-09 0.0022772 6.56692e-14)
(-1.01906e-09 0.00228122 6.56692e-14)
(-1.02086e-09 0.00228524 6.56692e-14)
(-1.02265e-09 0.00228926 6.56692e-14)
(-1.02445e-09 0.00229328 6.56692e-14)
(-1.02624e-09 0.0022973 6.56692e-14)
(-1.02804e-09 0.00230132 6.56692e-14)
(-1.02984e-09 0.00230534 6.56692e-14)
(-1.03163e-09 0.00230936 6.56692e-14)
(-1.03343e-09 0.00231338 6.56692e-14)
(-1.03522e-09 0.0023174 6.56692e-14)
(-1.03702e-09 0.00232142 6.56692e-14)
(-1.03881e-09 0.00232544 6.56692e-14)
(-1.04061e-09 0.00232946 6.56692e-14)
(-1.04241e-09 0.00233348 6.56692e-14)
(-1.0442e-09 0.0023375 6.56692e-14)
(-1.046e-09 0.00234152 6.56692e-14)
(-1.04779e-09 0.00234554 6.56692e-14)
(-1.04959e-09 0.00234956 6.56692e-14)
(-1.05138e-09 0.00235358 6.56692e-14)
(-1.05318e-09 0.0023576 6.56692e-14)
(-1.05498e-09 0.00236161 6.56692e-14)
(-1.05677e-09 0.00236563 6.56692e-14)
(-1.05857e-09 0.00236965 6.56692e-14)
(-1.06036e-09 0.00237367 6.56692e-14)
(-1.06216e-09 0.00237769 6.56692e-14)
(-1.06395e-09 0.00238171 6.56692e-14)
(-1.06575e-09 0.00238573 6.56692e-14)
(-1.06755e-09 0.00238975 6.56692e-14)
(-1.06934e-09 0.00239377 6.56692e-14)
(-1.07114e-09 0.00239779 6.56692e-14)
(-1.07293e-09 0.00240181 6.56692e-14)
(-1.07473e-09 0.00240583 6.56692e-14)
(-1.07652e-09 0.00240985 6.56692e-14)
(-1.07832e-09 0.00241387 6.56692e-14)
(-1.08012e-09 0.00241789 6.56692e-14)
(-1.08191e-09 0.00242191 6.56692e-14)
(-1.08371e-09 0.00242593 6.56692e-14)
(-1.0855e-09 0.00242995 6.56692e-14)
(-1.0873e-09 0.00243397 6.56692e-14)
(-1.08909e-09 0.00243799 6.56692e-14)
(-1.09089e-09 0.00244201 6.56692e-14)
(-1.09269e-09 0.00244603 6.56692e-14)
(-1.09448e-09 0.00245005 6.56692e-14)
(-1.09628e-09 0.00245407 6.56692e-14)
(-1.09807e-09 0.00245809 6.56692e-14)
(-1.09987e-09 0.00246211 6.56692e-14)
(-1.10166e-09 0.00246613 6.56692e-14)
(-1.10346e-09 0.00247015 6.56692e-14)
(-1.10526e-09 0.00247417 6.56692e-14)
(-1.10705e-09 0.00247819 6.56692e-14)
(-1.10885e-09 0.00248221 6.56692e-14)
(-1.11064e-09 0.00248623 6.56692e-14)
(-1.11244e-09 0.00249025 6.56692e-14)
(-1.11423e-09 0.00249427 6.56692e-14)
(-1.11603e-09 0.00249829 6.56692e-14)
(-1.11783e-09 0.00250231 6.56692e-14)
(-1.11962e-09 0.00250633 6.56692e-14)
(-1.12142e-09 0.00251035 6.56692e-14)
(-1.12321e-09 0.00251437 6.56692e-14)
(-1.12501e-09 0.00251839 6.56692e-14)
(-1.1268e-09 0.00252241 6.56692e-14)
(-1.1286e-09 0.00252643 6.56692e-14)
(-1.1304e-09 0.00253045 6.56692e-14)
(-1.13219e-09 0.00253446 6.56692e-14)
(-1.13399e-09 0.00253848 6.56692e-14)
(-1.13578e-09 0.0025425 6.56692e-14)
(-1.13758e-09 0.00254652 6.56692e-14)
(-1.13937e-09 0.00255054 6.56692e-14)
(-1.14117e-09 0.00255456 6.56692e-14)
(-1.14297e-09 0.00255858 6.56692e-14)
(-1.14476e-09 0.0025626 6.56692e-14)
(-1.14656e-09 0.00256662 6.56692e-14)
(-1.14835e-09 0.00257064 6.56692e-14)
(-1.15015e-09 0.00257466 6.56692e-14)
(-1.15194e-09 0.00257868 6.56692e-14)
(-1.15374e-09 0.0025827 6.56692e-14)
(-1.15554e-09 0.00258672 6.56692e-14)
(-1.15733e-09 0.00259074 6.56692e-14)
(-1.15913e-09 0.00259476 6.56692e-14)
(-1.16092e-09 0.00259878 6.56692e-14)
(-1.16272e-09 0.0026028 6.56692e-14)
(-1.16451e-09 0.00260682 6.56692e-14)
(-1.16631e-09 0.00261084 6.56692e-14)
(-1.16811e-09 0.00261486 6.56692e-14)
(-1.1699e-09 0.00261888 6.56692e-14)
(-1.1717e-09 0.0026229 6.56692e-14)
(-1.17349e-09 0.00262692 6.56692e-14)
(-1.17529e-09 0.00263094 6.56692e-14)
(-1.17708e-09 0.00263496 6.56692e-14)
(-1.17888e-09 0.00263898 6.56692e-14)
(-1.18068e-09 0.002643 6.56692e-14)
(-1.18247e-09 0.00264702 6.56692e-14)
(-1.18427e-09 0.00265104 6.56692e-14)
(-1.18606e-09 0.00265506 6.56692e-14)
(-1.18786e-09 0.00265908 6.56692e-14)
(-1.18965e-09 0.0026631 6.56692e-14)
(-1.19145e-09 0.00266712 6.56692e-14)
(-1.19325e-09 0.00267114 6.56692e-14)
(-1.19504e-09 0.00267516 6.56692e-14)
(-1.19684e-09 0.00267918 6.56692e-14)
(-1.19863e-09 0.0026832 6.56692e-14)
(-1.20043e-09 0.00268722 6.56692e-14)
(-1.20222e-09 0.00269124 6.56692e-14)
(-1.20402e-09 0.00269526 6.56692e-14)
(-1.20582e-09 0.00269928 6.56692e-14)
(-1.20761e-09 0.0027033 6.56692e-14)
(-1.20941e-09 0.00270731 6.56692e-14)
(-1.2112e-09 0.00271133 6.56692e-14)
(-1.213e-09 0.00271535 6.56692e-14)
(-1.21479e-09 0.00271937 6.56692e-14)
(-1.21659e-09 0.00272339 6.56692e-14)
(-1.21839e-09 0.00272741 6.56692e-14)
(-1.22018e-09 0.00273143 6.56692e-14)
(-1.22198e-09 0.00273545 6.56692e-14)
(-1.22377e-09 0.00273947 6.56692e-14)
(-1.22557e-09 0.00274349 6.56692e-14)
(-1.22736e-09 0.00274751 6.56692e-14)
(-1.22916e-09 0.00275153 6.56692e-14)
(-1.23095e-09 0.00275555 6.56692e-14)
(-1.23275e-09 0.00275957 6.56692e-14)
(-1.23455e-09 0.00276359 6.56692e-14)
(-1.23634e-09 0.00276761 6.56692e-14)
(-1.23814e-09 0.00277163 6.56692e-14)
(-1.23993e-09 0.00277565 6.56692e-14)
(-1.24173e-09 0.00277967 6.56692e-14)
(-1.24352e-09 0.00278369 6.56692e-14)
(-1.24532e-09 0.00278771 6.56692e-14)
(-1.24712e-09 0.00279173 6.56692e-14)
(-1.24891e-09 0.00279575 6.56692e-14)
(-1.25071e-09 0.00279977 6.56692e-14)
(-1.2525e-09 0.00280379 6.56692e-14)
(-1.2543e-09 0.00280781 6.56692e-14)
(-1.25609e-09 0.00281183 6.56692e-14)
(-1.25789e-09 0.00281585 6.56692e-14)
(-1.25969e-09 0.00281987 6.56692e-14)
(-1.26148e-09 0.00282389 6.56692e-14)
(-1.26328e-09 0.00282791 6.56692e-14)
(-1.26507e-09 0.00283193 6.56692e-14)
(-1.26687e-09 0.00283595 6.56692e-14)
(-1.26866e-09 0.00283997 6.56692e-14)
(-1.27046e-09 0.00284399 6.56692e-14)
(-1.27226e-09 0.00284801 6.56692e-14)
(-1.27405e-09 0.00285203 6.56692e-14)
(-1.27585e-09 0.00285605 6.56692e-14)
(-1.27764e-09 0.00286007 6.56692e-14)
(-1.27944e-09 0.00286409 6.56692e-14)
(-1.28123e-09 0.00286811 6.56692e-14)
(-1.28303e-09 0.00287213 6.56692e-14)
(-1.28483e-09 0.00287615 6.56692e-14)
(-1.28662e-09 0.00288016 6.56692e-14)
(-1.28842e-09 0.00288418 6.56692e-14)
(-1.29021e-09 0.0028882 6.56692e-14)
(-1.29201e-09 0.00289222 6.56692e-14)
(-1.2938e-09 0.00289624 6.56692e-14)
(-1.2956e-09 0.00290026 6.56692e-14)
(-1.2974e-09 0.00290428 6.56692e-14)
(-1.29919e-09 0.0029083 6.56692e-14)
(-1.30099e-09 0.00291232 6.56692e-14)
(-1.30278e-09 0.00291634 6.56692e-14)
(-1.30458e-09 0.00292036 6.56692e-14)
(-1.30637e-09 0.00292438 6.56692e-14)
(-1.30817e-09 0.0029284 6.56692e-14)
(-1.30997e-09 0.00293242 6.56692e-14)
(-1.31176e-09 0.00293644 6.56692e-14)
(-1.31356e-09 0.00294046 6.56692e-14)
(-1.31535e-09 0.00294448 6.56692e-14)
(-1.31715e-09 0.0029485 6.56692e-14)
(-1.31894e-09 0.00295252 6.56692e-14)
(-1.32074e-09 0.00295654 6.56692e-14)
(-1.32254e-09 0.00296056 6.56692e-14)
(-1.32433e-09 0.00296458 6.56692e-14)
(-1.32613e-09 0.0029686 6.56692e-14)
(-1.32792e-09 0.00297262 6.56692e-14)
(-1.32972e-09 0.00297664 6.56692e-14)
(-1.33151e-09 0.00298066 6.56692e-14)
(-1.33331e-09 0.00298468 6.56692e-14)
(-1.33511e-09 0.0029887 6.56692e-14)
(-1.3369e-09 0.00299272 6.56692e-14)
(-1.3387e-09 0.00299674 6.56692e-14)
(-1.34049e-09 0.00300076 6.56692e-14)
(-1.34229e-09 0.00300478 6.56692e-14)
(-1.34408e-09 0.0030088 6.56692e-14)
(-1.34588e-09 0.00301282 6.56692e-14)
(-1.34768e-09 0.00301684 6.56692e-14)
(-1.34947e-09 0.00302086 6.56692e-14)
(-1.35127e-09 0.00302488 6.56692e-14)
(-1.35306e-09 0.0030289 6.56692e-14)
(-1.35486e-09 0.00303292 6.56692e-14)
(-1.35665e-09 0.00303694 6.56692e-14)
(-1.35845e-09 0.00304096 6.56692e-14)
(-1.36025e-09 0.00304498 6.56692e-14)
(-1.36204e-09 0.003049 6.56692e-14)
(-1.36384e-09 0.00305301 6.56692e-14)
(-1.36563e-09 0.00305703 6.56692e-14)
(-1.36743e-09 0.00306105 6.56692e-14)
(-1.36922e-09 0.00306507 6.56692e-14)
(-1.37102e-09 0.00306909 6.56692e-14)