/*--------------------------------*- C++ -*----------------------------------*\
| =========                 |                                                 |
| \\      /  F ield         | OpenFOAM: The Open Source CFD Toolbox           |
|  \\    /   O peration     | Version:  2206                                  |
|   \\  /    A nd           | Website:  www.openfoam.com                      |
|    \\/     M anipulation  |                                                 |
\*---------------------------------------------------------------------------*/
FoamFile
{
    version     2.0;
    format      ascii;
    arch        "LSB;label=32;scalar=64";
    class       volVectorField;
    location    "90";
    object      U;
}
// * * * * * * * * * * * * * * * * * * * * * * * * * * * * * * * * * * * * * //

dimensions      [0 1 -1 0 0 0 0];

internalField   nonuniform List<vector> 
100000
(
(-1.19769e-11 4.14495e-06 9.27669e-12)
(1.14593e-11 6.67988e-06 5.62255e-13)
(3.41731e-12 1.24329e-05 1.85414e-13)
(-7.64137e-12 1.85664e-05 5.64332e-14)
(-1.25606e-11 2.42663e-05 8.0115e-14)
(-7.2723e-12 2.52104e-05 3.3845e-14)
(-1.04216e-11 3.09969e-05 1.41358e-13)
(-1.33772e-11 3.71673e-05 8.99907e-14)
(-1.8563e-11 4.33343e-05 1.12283e-13)
(-2.18356e-11 4.90688e-05 4.82994e-14)
(-2.00986e-11 4.99846e-05 5.20207e-14)
(-2.47759e-11 5.57617e-05 9.44121e-14)
(-2.66678e-11 6.19339e-05 1.01378e-13)
(-3.22534e-11 6.81036e-05 9.32219e-14)
(-3.40398e-11 7.38479e-05 5.90963e-14)
(-3.36005e-11 7.47584e-05 4.60077e-14)
(-3.63306e-11 8.05307e-05 9.99883e-14)
(-3.9998e-11 8.67032e-05 9.55929e-14)
(-4.37324e-11 9.28739e-05 1.01067e-13)
(-4.65726e-11 9.86226e-05 5.16752e-14)
(-4.55578e-11 9.95313e-05 5.36344e-14)
(-4.81671e-11 0.000105301 9.48359e-14)
(-5.23007e-11 0.000111474 1.01107e-13)
(-5.52111e-11 0.000117665 9.92198e-14)
(-5.93708e-11 0.000123837 1.00693e-13)
(-6.19621e-11 0.000129589 5.3327e-14)
(-6.09152e-11 0.000130497 5.32515e-14)
(-6.36812e-11 0.000136264 9.72816e-14)
(-6.74331e-11 0.000142437 1.00462e-13)
(-7.08748e-11 0.000148608 9.87469e-14)
(-7.39916e-11 0.000154361 5.4776e-14)
(-7.25348e-11 0.000155269 5.17588e-14)
(-7.55942e-11 0.000161035 9.88535e-14)
(-7.91161e-11 0.000167208 9.88661e-14)
(-8.27088e-11 0.000173379 1.00005e-13)
(-8.57047e-11 0.000179133 5.32401e-14)
(-8.4325e-11 0.000180041 5.31664e-14)
(-8.73263e-11 0.000185806 9.75787e-14)
(-9.08769e-11 0.000191979 1.00019e-13)
(-9.44441e-11 0.00019815 9.86866e-14)
(-9.74441e-11 0.000203905 5.42484e-14)
(-9.60629e-11 0.000204812 5.21473e-14)
(-9.90563e-11 0.000210577 9.86015e-14)
(-1.02612e-10 0.00021675 9.89857e-14)
(-1.06164e-10 0.000222921 9.95003e-14)
(-1.09173e-10 0.000228677 5.32723e-14)
(-1.07779e-10 0.000229584 5.30326e-14)
(-1.10784e-10 0.000235348 9.77907e-14)
(-1.14323e-10 0.000241521 9.97133e-14)
(-1.17886e-10 0.000247693 9.8663e-14)
(-1.20879e-10 0.000253449 5.39123e-14)
(-1.19499e-10 0.000254356 5.23789e-14)
(-1.22488e-10 0.000260119 9.84433e-14)
(-1.2604e-10 0.000266292 9.90467e-14)
(-1.29586e-10 0.000272464 9.91846e-14)
(-1.32593e-10 0.00027822 5.32785e-14)
(-1.31196e-10 0.000279127 5.29505e-14)
(-1.34203e-10 0.000284891 9.79168e-14)
(-1.37731e-10 0.000291063 9.95132e-14)
(-1.41303e-10 0.000297235 9.86417e-14)
(-1.44275e-10 0.000302992 5.36808e-14)
(-1.4292e-10 0.000303899 5.2541e-14)
(-1.45873e-10 0.000309662 9.83155e-14)
(-1.49469e-10 0.000315834 9.91118e-14)
(-1.52951e-10 0.000322006 9.89255e-14)
(-1.56035e-10 0.000327763 5.33332e-14)
(-1.54536e-10 0.00032867 5.28198e-14)
(-1.57674e-10 0.000334433 9.80954e-14)
(-1.61032e-10 0.000340606 9.92504e-14)
(-1.64816e-10 0.000346777 9.87754e-14)
(-1.67514e-10 0.000352535 5.3323e-14)
(-1.66504e-10 0.000353442 5.28959e-14)
(-1.69024e-10 0.000359204 9.79377e-14)
(-1.73161e-10 0.000365377 9.99281e-14)
(-1.76012e-10 0.000371569 1.00551e-13)
(-1.80154e-10 0.000377741 9.85135e-14)
(-1.82684e-10 0.000383499 5.39808e-14)
(-1.81656e-10 0.000384406 5.25575e-14)
(-1.8436e-10 0.000390168 9.87756e-14)
(-1.88132e-10 0.000396341 9.92228e-14)
(-1.91506e-10 0.000402513 9.92069e-14)
(-1.9464e-10 0.000408271 5.32878e-14)
(-1.93137e-10 0.000409177 5.31185e-14)
(-1.96214e-10 0.00041494 9.82654e-14)
(-1.99695e-10 0.000421112 9.96168e-14)
(-2.03293e-10 0.000427284 9.87762e-14)
(-2.06252e-10 0.000433042 5.35941e-14)
(-2.04885e-10 0.000433949 5.28092e-14)
(-2.07857e-10 0.000439711 9.85278e-14)
(-2.11417e-10 0.000445883 9.93265e-14)
(-2.14955e-10 0.000452055 9.89715e-14)
(-2.17959e-10 0.000457814 5.33389e-14)
(-2.16558e-10 0.00045872 5.3019e-14)
(-2.19557e-10 0.000464482 9.8311e-14)
(-2.23096e-10 0.000470655 9.94887e-14)
(-2.26649e-10 0.000476827 9.87491e-14)
(-2.2964e-10 0.000482585 5.34865e-14)
(-2.2825e-10 0.000483492 5.2849e-14)
(-2.3124e-10 0.000489254 9.84587e-14)
(-2.34787e-10 0.000495426 9.93061e-14)
(-2.38331e-10 0.000501598 9.88641e-14)
(-2.41331e-10 0.000507356 5.33163e-14)
(-2.39932e-10 0.000508263 5.29868e-14)
(-2.42934e-10 0.000514025 9.83126e-14)
(-2.46464e-10 0.000520197 9.94081e-14)
(-2.50028e-10 0.000526369 9.87144e-14)
(-2.53001e-10 0.000532128 5.34012e-14)
(-2.51638e-10 0.000533034 5.28893e-14)
(-2.54593e-10 0.000538796 9.83833e-14)
(-2.58186e-10 0.000544968 9.932e-14)
(-2.61667e-10 0.00055114 9.87319e-14)
(-2.64746e-10 0.000556899 5.33573e-14)
(-2.63246e-10 0.000557806 5.28821e-14)
(-2.6638e-10 0.000563567 9.8414e-14)
(-2.69741e-10 0.00056974 9.92146e-14)
(-2.73519e-10 0.000575912 9.88446e-14)
(-2.76218e-10 0.000581671 5.31324e-14)
(-2.75201e-10 0.000582577 5.31705e-14)
(-2.77723e-10 0.000588339 9.80291e-14)
(-2.81859e-10 0.000594512 1.00107e-13)
(-2.8471e-10 0.000600703 1.00415e-13)
(-2.88848e-10 0.000606876 9.84609e-14)
(-2.91376e-10 0.000612635 5.37625e-14)
(-2.90348e-10 0.000613541 5.27356e-14)
(-2.93051e-10 0.000619303 9.87637e-14)
(-2.96823e-10 0.000625475 9.92729e-14)
(-3.00194e-10 0.000631647 9.90148e-14)
(-3.03327e-10 0.000637406 5.32469e-14)
(-3.01824e-10 0.000638313 5.31405e-14)
(-3.04899e-10 0.000644074 9.84049e-14)
(-3.0838e-10 0.000650246 9.95382e-14)
(-3.11977e-10 0.000656419 9.87428e-14)
(-3.14934e-10 0.000662178 5.34365e-14)
(-3.13567e-10 0.000663084 5.29563e-14)
(-3.16539e-10 0.000668845 9.85463e-14)
(-3.20099e-10 0.000675018 9.93794e-14)
(-3.23635e-10 0.00068119 9.88397e-14)
(-3.26637e-10 0.000686949 5.3308e-14)
(-3.25237e-10 0.000687855 5.30536e-14)
(-3.28234e-10 0.000693617 9.84382e-14)
(-3.31775e-10 0.000699789 9.9448e-14)
(-3.35324e-10 0.000705961 9.87324e-14)
(-3.38317e-10 0.00071172 5.33711e-14)
(-3.36924e-10 0.000712627 5.29737e-14)
(-3.39916e-10 0.000718388 9.84985e-14)
(-3.4346e-10 0.00072456 9.93588e-14)
(-3.47007e-10 0.000730732 9.87792e-14)
(-3.5e-10 0.000736492 5.3288e-14)
(-3.48608e-10 0.000737398 5.30372e-14)
(-3.51599e-10 0.000743159 9.84196e-14)
(-3.55145e-10 0.000749332 9.94084e-14)
(-3.58689e-10 0.000755504 9.86913e-14)
(-3.61686e-10 0.000761263 5.33415e-14)
(-3.60288e-10 0.000762169 5.29648e-14)
(-3.63289e-10 0.000767931 9.84791e-14)
(-3.66821e-10 0.000774103 9.93187e-14)
(-3.70383e-10 0.000780275 9.87495e-14)
(-3.73355e-10 0.000786034 5.32445e-14)
(-3.71991e-10 0.000786941 5.30529e-14)
(-3.74946e-10 0.000792702 9.83671e-14)
(-3.78539e-10 0.000798874 9.9418e-14)
(-3.82021e-10 0.000805046 9.86005e-14)
(-3.85098e-10 0.000810806 5.33835e-14)
(-3.83598e-10 0.000811712 5.28722e-14)
(-3.8673e-10 0.000817473 9.85675e-14)
(-3.90093e-10 0.000823646 9.91524e-14)
(-3.93869e-10 0.000829818 9.8886e-14)
(-3.9657e-10 0.000835577 5.30053e-14)
(-3.9555e-10 0.000836483 5.33171e-14)
(-3.98073e-10 0.000842245 9.80272e-14)
(-4.02208e-10 0.000848417 1.00203e-13)
(-4.05059e-10 0.000854609 1.00304e-13)
(-4.09196e-10 0.000860782 9.84463e-14)
(-4.11724e-10 0.000866541 5.3618e-14)
(-4.10697e-10 0.000867448 5.28417e-14)
(-4.134e-10 0.000873209 9.87131e-14)
(-4.17172e-10 0.000879381 9.93094e-14)
(-4.20541e-10 0.000885553 9.88738e-14)
(-4.23673e-10 0.000891313 5.3245e-14)
(-4.22171e-10 0.000892219 5.31145e-14)
(-4.25246e-10 0.00089798 9.84885e-14)
(-4.28728e-10 0.000904152 9.94538e-14)
(-4.32323e-10 0.000910324 9.87377e-14)
(-4.3528e-10 0.000916084 5.33175e-14)
(-4.33913e-10 0.00091699 5.30527e-14)
(-4.36885e-10 0.000922751 9.8513e-14)
(-4.40445e-10 0.000928924 9.942e-14)
(-4.4398e-10 0.000935096 9.87264e-14)
(-4.46982e-10 0.000940855 5.33107e-14)
(-4.45582e-10 0.000941762 5.30363e-14)
(-4.48579e-10 0.000947523 9.85205e-14)
(-4.5212e-10 0.000953695 9.93829e-14)
(-4.55669e-10 0.000959867 9.8737e-14)
(-4.58661e-10 0.000965627 5.32703e-14)
(-4.57269e-10 0.000966533 5.30646e-14)
(-4.60259e-10 0.000972294 9.84758e-14)
(-4.63806e-10 0.000978466 9.9406e-14)
(-4.67349e-10 0.000984638 9.86832e-14)
(-4.70347e-10 0.000990398 5.33006e-14)
(-4.68948e-10 0.000991304 5.30181e-14)
(-4.71948e-10 0.000997065 9.85116e-14)
(-4.75481e-10 0.00100324 9.9344e-14)
(-4.79043e-10 0.00100941 9.87228e-14)
(-4.82015e-10 0.00101517 5.32304e-14)
(-4.8065e-10 0.00101608 5.30834e-14)
(-4.83606e-10 0.00102184 9.84229e-14)
(-4.87198e-10 0.00102801 9.94247e-14)
(-4.9068e-10 0.00103418 9.85993e-14)
(-4.93757e-10 0.00103994 5.3352e-14)
(-4.92256e-10 0.00104085 5.29226e-14)
(-4.95389e-10 0.00104661 9.86047e-14)
(-4.98752e-10 0.00105278 9.91809e-14)
(-5.02528e-10 0.00105895 9.887e-14)
(-5.05229e-10 0.00106471 5.29951e-14)
(-5.04208e-10 0.00106562 5.33494e-14)
(-5.06732e-10 0.00107138 9.80823e-14)
(-5.10867e-10 0.00107755 1.00217e-13)
(-5.13718e-10 0.00108374 1.00303e-13)
(-5.17855e-10 0.00108992 9.84063e-14)
(-5.20382e-10 0.00109568 5.35938e-14)
(-5.19355e-10 0.00109658 5.28586e-14)
(-5.22058e-10 0.00110234 9.87398e-14)
(-5.2583e-10 0.00110852 9.92974e-14)
(-5.29199e-10 0.00111469 9.8853e-14)
(-5.32331e-10 0.00112045 5.32095e-14)
(-5.30829e-10 0.00112135 5.31463e-14)
(-5.33904e-10 0.00112711 9.85029e-14)
(-5.37386e-10 0.00113329 9.94592e-14)
(-5.40981e-10 0.00113946 9.87072e-14)
(-5.43938e-10 0.00114522 5.32987e-14)
(-5.4257e-10 0.00114613 5.30713e-14)
(-5.45543e-10 0.00115189 9.85426e-14)
(-5.49102e-10 0.00115806 9.94151e-14)
(-5.52638e-10 0.00116423 9.87128e-14)
(-5.55639e-10 0.00116999 5.32818e-14)
(-5.54239e-10 0.0011709 5.30678e-14)
(-5.57236e-10 0.00117666 9.85391e-14)
(-5.60778e-10 0.00118283 9.93933e-14)
(-5.64326e-10 0.001189 9.87143e-14)
(-5.67318e-10 0.00119476 5.32568e-14)
(-5.65925e-10 0.00119567 5.30831e-14)
(-5.68917e-10 0.00120143 9.85098e-14)
(-5.72462e-10 0.0012076 9.94039e-14)
(-5.76008e-10 0.00121377 9.868e-14)
(-5.79001e-10 0.00121953 5.32712e-14)
(-5.77608e-10 0.00122044 5.30575e-14)
(-5.80599e-10 0.0012262 9.85226e-14)
(-5.84146e-10 0.00123237 9.9373e-14)
(-5.87689e-10 0.00123854 9.86875e-14)
(-5.90686e-10 0.0012443 5.32463e-14)
(-5.89287e-10 0.00124521 5.30693e-14)
(-5.92288e-10 0.00125097 9.85022e-14)
(-5.95821e-10 0.00125714 9.93714e-14)
(-5.99382e-10 0.00126332 9.8673e-14)
(-6.02354e-10 0.00126908 5.32357e-14)
(-6.0099e-10 0.00126998 5.30779e-14)
(-6.03945e-10 0.00127574 9.84716e-14)
(-6.07538e-10 0.00128191 9.93982e-14)
(-6.11019e-10 0.00128809 9.86085e-14)
(-6.14097e-10 0.00129385 5.33041e-14)
(-6.12595e-10 0.00129475 5.29724e-14)
(-6.15728e-10 0.00130051 9.86001e-14)
(-6.19092e-10 0.00130669 9.92109e-14)
(-6.22868e-10 0.00131286 9.88285e-14)
(-6.25568e-10 0.00131862 5.30025e-14)
(-6.24547e-10 0.00131952 5.33467e-14)
(-6.27071e-10 0.00132529 9.81311e-14)
(-6.31206e-10 0.00133146 1.00197e-13)
(-6.34057e-10 0.00133765 1.00313e-13)
(-6.38194e-10 0.00134382 9.83481e-14)
(-6.4072e-10 0.00134958 5.3591e-14)
(-6.39695e-10 0.00135049 5.28457e-14)
(-6.42397e-10 0.00135625 9.87686e-14)
(-6.4617e-10 0.00136242 9.92594e-14)
(-6.49538e-10 0.00136859 9.88478e-14)
(-6.5267e-10 0.00137435 5.31593e-14)
(-6.51168e-10 0.00137526 5.31834e-14)
(-6.54243e-10 0.00138102 9.84843e-14)
(-6.57725e-10 0.00138719 9.94727e-14)
(-6.61319e-10 0.00139337 9.86563e-14)
(-6.64276e-10 0.00139912 5.3299e-14)
(-6.62909e-10 0.00140003 5.30606e-14)
(-6.65881e-10 0.00140579 9.85736e-14)
(-6.69441e-10 0.00141196 9.93832e-14)
(-6.72976e-10 0.00141814 9.87123e-14)
(-6.75978e-10 0.0014239 5.32369e-14)
(-6.74578e-10 0.0014248 5.31043e-14)
(-6.77575e-10 0.00143056 9.85253e-14)
(-6.81116e-10 0.00143674 9.94093e-14)
(-6.84665e-10 0.00144291 9.8671e-14)
(-6.87656e-10 0.00144867 5.32584e-14)
(-6.86264e-10 0.00144957 5.30762e-14)
(-6.89255e-10 0.00145533 9.85401e-14)
(-6.92802e-10 0.00146151 9.93805e-14)
(-6.96344e-10 0.00146768 9.86789e-14)
(-6.99342e-10 0.00147344 5.32371e-14)
(-6.97943e-10 0.00147435 5.30854e-14)
(-7.00944e-10 0.00148011 9.85238e-14)
(-7.04476e-10 0.00148628 9.93769e-14)
(-7.08038e-10 0.00149245 9.86699e-14)
(-7.1101e-10 0.00149821 5.32242e-14)
(-7.09645e-10 0.00149912 5.30978e-14)
(-7.126e-10 0.00150488 9.84904e-14)
(-7.16194e-10 0.00151105 9.94087e-14)
(-7.19675e-10 0.00151722 9.86035e-14)
(-7.22752e-10 0.00152298 5.32974e-14)
(-7.21251e-10 0.00152389 5.2989e-14)
(-7.24383e-10 0.00152965 9.86233e-14)
(-7.27747e-10 0.00153582 9.9219e-14)
(-7.31523e-10 0.00154199 9.88286e-14)
(-7.34223e-10 0.00154775 5.29933e-14)
(-7.33202e-10 0.00154866 5.33669e-14)
(-7.35726e-10 0.00155442 9.81514e-14)
(-7.39861e-10 0.00156059 1.0021e-13)
(-7.42713e-10 0.00156678 1.00309e-13)
(-7.46849e-10 0.00157296 9.83368e-14)
(-7.49376e-10 0.00157872 5.3576e-14)
(-7.4835e-10 0.00157962 5.28588e-14)
(-7.51052e-10 0.00158538 9.87771e-14)
(-7.54825e-10 0.00159156 9.926e-14)
(-7.58193e-10 0.00159773 9.88352e-14)
(-7.61325e-10 0.00160349 5.31484e-14)
(-7.59823e-10 0.00160439 5.3194e-14)
(-7.62899e-10 0.00161016 9.84965e-14)
(-7.6638e-10 0.00161633 9.94722e-14)
(-7.69975e-10 0.0016225 9.86479e-14)
(-7.72931e-10 0.00162826 5.32869e-14)
(-7.71565e-10 0.00162917 5.3074e-14)
(-7.74537e-10 0.00163493 9.85845e-14)
(-7.78097e-10 0.0016411 9.93861e-14)
(-7.81631e-10 0.00164727 9.87033e-14)
(-7.84633e-10 0.00165303 5.32279e-14)
(-7.83233e-10 0.00165394 5.31161e-14)
(-7.8623e-10 0.0016597 9.85388e-14)
(-7.89772e-10 0.00166587 9.94121e-14)
(-7.9332e-10 0.00167204 9.86647e-14)
(-7.96312e-10 0.0016778 5.32497e-14)
(-7.94919e-10 0.00167871 5.30882e-14)
(-7.97911e-10 0.00168447 9.85554e-14)
(-8.01456e-10 0.00169064 9.93823e-14)
(-8.05002e-10 0.00169681 9.86777e-14)
(-8.07994e-10 0.00170257 5.32236e-14)
(-8.06602e-10 0.00170348 5.31062e-14)
(-8.09593e-10 0.00170924 9.85275e-14)
(-8.13139e-10 0.00171541 9.9397e-14)
(-8.16682e-10 0.00172159 9.86464e-14)
(-8.1968e-10 0.00172735 5.32434e-14)
(-8.1828e-10 0.00172825 5.30765e-14)
(-8.21281e-10 0.00173401 9.85509e-14)
(-8.24814e-10 0.00174018 9.93562e-14)
(-8.28375e-10 0.00174636 9.8677e-14)
(-8.31348e-10 0.00175212 5.31936e-14)
(-8.29983e-10 0.00175302 5.3127e-14)
(-8.32938e-10 0.00175878 9.84808e-14)
(-8.36531e-10 0.00176496 9.94267e-14)
(-8.40013e-10 0.00177113 9.85747e-14)
(-8.4309e-10 0.00177689 5.3305e-14)
(-8.41588e-10 0.00177779 5.29812e-14)
(-8.44721e-10 0.00178355 9.86517e-14)
(-8.48085e-10 0.00178973 9.9201e-14)
(-8.51861e-10 0.0017959 9.88383e-14)
(-8.54561e-10 0.00180166 5.29648e-14)
(-8.5354e-10 0.00180257 5.33965e-14)
(-8.56064e-10 0.00180833 9.81435e-14)
(-8.60199e-10 0.0018145 1.0023e-13)
(-8.6305e-10 0.00182069 1.00281e-13)
(-8.67187e-10 0.00182686 9.83374e-14)
(-8.69713e-10 0.00183262 5.35428e-14)
(-8.68688e-10 0.00183353 5.28827e-14)
(-8.7139e-10 0.00183929 9.87598e-14)
(-8.75163e-10 0.00184546 9.92704e-14)
(-8.7853e-10 0.00185163 9.88005e-14)
(-8.81663e-10 0.00185739 5.31528e-14)
(-8.80161e-10 0.0018583 5.31818e-14)
(-8.83236e-10 0.00186406 9.85166e-14)
(-8.86718e-10 0.00187023 9.94475e-14)
(-8.90312e-10 0.00187641 9.8651e-14)
(-8.93269e-10 0.00188217 5.3256e-14)
(-8.91902e-10 0.00188307 5.30983e-14)
(-8.94874e-10 0.00188883 9.85693e-14)
(-8.98434e-10 0.001895 9.93988e-14)
(-9.01969e-10 0.00190118 9.86716e-14)
(-9.04971e-10 0.00190694 5.3234e-14)
(-9.03571e-10 0.00190784 5.31046e-14)
(-9.06568e-10 0.0019136 9.85609e-14)
(-9.10109e-10 0.00191978 9.93892e-14)
(-9.13657e-10 0.00192595 9.86712e-14)
(-9.16649e-10 0.00193171 5.32194e-14)
(-9.15257e-10 0.00193261 5.31148e-14)
(-9.18247e-10 0.00193838 9.85396e-14)
(-9.21795e-10 0.00194455 9.94003e-14)
(-9.25337e-10 0.00195072 9.86441e-14)
(-9.28335e-10 0.00195648 5.32374e-14)
(-9.26935e-10 0.00195739 5.3087e-14)
(-9.29936e-10 0.00196315 9.85623e-14)
(-9.33469e-10 0.00196932 9.93614e-14)
(-9.3703e-10 0.00197549 9.86749e-14)
(-9.40003e-10 0.00198125 5.31889e-14)
(-9.38637e-10 0.00198216 5.31372e-14)
(-9.41593e-10 0.00198792 9.84932e-14)
(-9.45186e-10 0.00199409 9.94322e-14)
(-9.48668e-10 0.00200026 9.85739e-14)
(-9.51745e-10 0.00200602 5.33007e-14)
(-9.50243e-10 0.00200693 5.29918e-14)
(-9.53376e-10 0.00201269 9.86644e-14)
(-9.5674e-10 0.00201886 9.92074e-14)
(-9.60515e-10 0.00202503 9.88382e-14)
(-9.63216e-10 0.00203079 5.29611e-14)
(-9.62194e-10 0.0020317 5.34073e-14)
(-9.64718e-10 0.00203746 9.81565e-14)
(-9.68854e-10 0.00204363 1.00237e-13)
(-9.71705e-10 0.00204982 1.00281e-13)
(-9.75841e-10 0.002056 9.83309e-14)
(-9.78368e-10 0.00206176 5.35356e-14)
(-9.77343e-10 0.00206266 5.28898e-14)
(-9.80044e-10 0.00206842 9.87661e-14)
(-9.83818e-10 0.0020746 9.92708e-14)
(-9.87185e-10 0.00208077 9.87948e-14)
(-9.90318e-10 0.00208653 5.31464e-14)
(-9.88816e-10 0.00208744 5.3189e-14)
(-9.91891e-10 0.0020932 9.85236e-14)
(-9.95372e-10 0.00209937 9.94486e-14)
(-9.98967e-10 0.00210554 9.86463e-14)
(-1.00192e-09 0.0021113 5.32501e-14)
(-1.00056e-09 0.00211221 5.31058e-14)
(-1.00353e-09 0.00211797 9.8577e-14)
(-1.00709e-09 0.00212414 9.94006e-14)
(-1.01062e-09 0.00213031 9.86678e-14)
(-1.01363e-09 0.00213607 5.32286e-14)
(-1.01223e-09 0.00213698 5.31124e-14)
(-1.01522e-09 0.00214274 9.85688e-14)
(-1.01876e-09 0.00214891 9.93923e-14)
(-1.02231e-09 0.00215508 9.86674e-14)
(-1.0253e-09 0.00216084 5.32157e-14)
(-1.02391e-09 0.00216175 5.3121e-14)
(-1.0269e-09 0.00216751 9.85507e-14)
(-1.03045e-09 0.00217368 9.94002e-14)
(-1.03399e-09 0.00217985 9.86465e-14)
(-1.03699e-09 0.00218561 5.32269e-14)
(-1.03559e-09 0.00218652 5.31036e-14)
(-1.03859e-09 0.00219228 9.856e-14)
(-1.04213e-09 0.00219845 9.93806e-14)
(-1.04567e-09 0.00220463 9.8653e-14)
(-1.04867e-09 0.00221039 5.3212e-14)
(-1.04727e-09 0.00221129 5.31102e-14)
(-1.05027e-09 0.00221705 9.85488e-14)
(-1.05381e-09 0.00222322 9.93773e-14)
(-1.05737e-09 0.0022294 9.86496e-14)
(-1.06034e-09 0.00223516 5.31992e-14)
(-1.05897e-09 0.00223606 5.31253e-14)
(-1.06193e-09 0.00224182 9.85157e-14)
(-1.06552e-09 0.002248 9.94134e-14)
(-1.06901e-09 0.00225417 9.85849e-14)
(-1.07208e-09 0.00225993 5.3276e-14)
(-1.07058e-09 0.00226084 5.30157e-14)
(-1.07371e-09 0.0022666 9.86519e-14)
(-1.07708e-09 0.00227277 9.92248e-14)
(-1.08085e-09 0.00227894 9.88145e-14)
(-1.08355e-09 0.0022847 5.29725e-14)
(-1.08253e-09 0.00228561 5.33958e-14)
(-1.08506e-09 0.00229137 9.818e-14)
(-1.08919e-09 0.00229754 1.00219e-13)
(-1.09204e-09 0.00230373 1.00292e-13)
(-1.09618e-09 0.0023099 9.83017e-14)
(-1.0987e-09 0.00231566 5.35441e-14)
(-1.09768e-09 0.00231657 5.28749e-14)
(-1.10038e-09 0.00232233 9.8784e-14)
(-1.10416e-09 0.0023285 9.92475e-14)
(-1.10752e-09 0.00233468 9.88021e-14)
(-1.11065e-09 0.00234044 5.31197e-14)
(-1.10915e-09 0.00234134 5.32103e-14)
(-1.11223e-09 0.0023471 9.85062e-14)
(-1.11571e-09 0.00235327 9.94619e-14)
(-1.1193e-09 0.00235945 9.86185e-14)
(-1.12226e-09 0.00236521 5.32598e-14)
(-1.12089e-09 0.00236611 5.30913e-14)
(-1.12387e-09 0.00237187 9.85961e-14)
(-1.12743e-09 0.00237805 9.93787e-14)
(-1.13096e-09 0.00238422 9.86768e-14)
(-1.13396e-09 0.00238998 5.32029e-14)
(-1.13256e-09 0.00239088 5.3134e-14)
(-1.13556e-09 0.00239664 9.85528e-14)
(-1.1391e-09 0.00240282 9.94066e-14)
(-1.14265e-09 0.00240899 9.86419e-14)
(-1.14564e-09 0.00241475 5.32254e-14)
(-1.14425e-09 0.00241566 5.31086e-14)
(-1.14724e-09 0.00242142 9.85687e-14)
(-1.15079e-09 0.00242759 9.93828e-14)
(-1.15433e-09 0.00243376 9.86525e-14)
(-1.15733e-09 0.00243952 5.32083e-14)
(-1.15593e-09 0.00244043 5.31174e-14)
(-1.15893e-09 0.00244619 9.85562e-14)
(-1.16246e-09 0.00245236 9.93813e-14)
(-1.16602e-09 0.00245853 9.86486e-14)
(-1.16899e-09 0.00246429 5.31969e-14)
(-1.16763e-09 0.0024652 5.31317e-14)
(-1.17058e-09 0.00247096 9.85243e-14)
(-1.17418e-09 0.00247713 9.94171e-14)
(-1.17766e-09 0.0024833 9.85852e-14)
(-1.18074e-09 0.00248906 5.32732e-14)
(-1.17923e-09 0.00248997 5.3023e-14)
(-1.18237e-09 0.00249573 9.86601e-14)
(-1.18573e-09 0.0025019 9.92298e-14)
(-1.18951e-09 0.00250807 9.88146e-14)
(-1.19221e-09 0.00251383 5.29707e-14)
(-1.19119e-09 0.00251474 5.34027e-14)
(-1.19371e-09 0.0025205 9.81892e-14)
(-1.19785e-09 0.00252667 1.00224e-13)
(-1.2007e-09 0.00253287 1.00293e-13)
(-1.20483e-09 0.00253904 9.82977e-14)
(-1.20736e-09 0.0025448 5.35402e-14)
(-1.20633e-09 0.00254571 5.28793e-14)
(-1.20904e-09 0.00255147 9.8789e-14)
(-1.21281e-09 0.00255764 9.92479e-14)
(-1.21618e-09 0.00256381 9.87994e-14)
(-1.21931e-09 0.00256957 5.31154e-14)
(-1.21781e-09 0.00257048 5.32156e-14)
(-1.22088e-09 0.00257624 9.85109e-14)
(-1.22436e-09 0.00258241 9.94636e-14)
(-1.22796e-09 0.00258858 9.86155e-14)
(-1.23092e-09 0.00259434 5.32567e-14)
(-1.22955e-09 0.00259525 5.30959e-14)
(-1.23252e-09 0.00260101 9.86021e-14)
(-1.23608e-09 0.00260718 9.93799e-14)
(-1.23962e-09 0.00261335 9.86753e-14)
(-1.24262e-09 0.00261911 5.31991e-14)
(-1.24122e-09 0.00262002 5.314e-14)
(-1.24421e-09 0.00262578 9.85578e-14)
(-1.24776e-09 0.00263195 9.94098e-14)
(-1.2513e-09 0.00263812 9.86391e-14)
(-1.2543e-09 0.00264388 5.32242e-14)
(-1.2529e-09 0.00264479 5.31118e-14)
(-1.2559e-09 0.00265055 9.85778e-14)
(-1.25944e-09 0.00265672 9.93816e-14)
(-1.26299e-09 0.0026629 9.86567e-14)
(-1.26598e-09 0.00266866 5.31988e-14)
(-1.26459e-09 0.00266956 5.31321e-14)
(-1.26758e-09 0.00267532 9.85506e-14)
(-1.27112e-09 0.00268149 9.94003e-14)
(-1.27467e-09 0.00268767 9.8627e-14)
(-1.27766e-09 0.00269343 5.32221e-14)
(-1.27626e-09 0.00269433 5.31016e-14)
(-1.27927e-09 0.00270009 9.85777e-14)
(-1.2828e-09 0.00270627 9.93605e-14)
(-1.28636e-09 0.00271244 9.86623e-14)
(-1.28933e-09 0.0027182 5.31725e-14)
(-1.28797e-09 0.0027191 5.31546e-14)
(-1.29092e-09 0.00272486 9.85077e-14)
(-1.29452e-09 0.00273104 9.94352e-14)
(-1.298e-09 0.00273721 9.8561e-14)
(-1.30107e-09 0.00274297 5.32877e-14)
(-1.29957e-09 0.00274388 5.30075e-14)
(-1.3027e-09 0.00274964 9.86825e-14)
(-1.30607e-09 0.00275581 9.92097e-14)
(-1.30984e-09 0.00276198 9.88297e-14)
(-1.31255e-09 0.00276774 5.29468e-14)
(-1.31152e-09 0.00276865 5.34261e-14)
(-1.31405e-09 0.00277441 9.81731e-14)
(-1.31818e-09 0.00278058 1.00243e-13)
(-1.32103e-09 0.00278677 1.00269e-13)
(-1.32517e-09 0.00279294 9.83092e-14)
(-1.3277e-09 0.0027987 5.35141e-14)
(-1.32667e-09 0.00279961 5.29007e-14)
(-1.32937e-09 0.00280537 9.87689e-14)
(-1.33315e-09 0.00281154 9.92634e-14)
(-1.33651e-09 0.00281772 9.87722e-14)
(-1.33965e-09 0.00282348 5.31289e-14)
(-1.33814e-09 0.00282438 5.31979e-14)
(-1.34122e-09 0.00283014 9.85305e-14)
(-1.3447e-09 0.00283632 9.94403e-14)
(-1.3483e-09 0.00284249 9.86282e-14)
(-1.35125e-09 0.00284825 5.32312e-14)
(-1.34989e-09 0.00284915 5.31179e-14)
(-1.35286e-09 0.00285491 9.85826e-14)
(-1.35642e-09 0.00286109 9.93967e-14)
(-1.35995e-09 0.00286726 9.86489e-14)
(-1.36295e-09 0.00287302 5.32137e-14)
(-1.36155e-09 0.00287393 5.31222e-14)
(-1.36455e-09 0.00287969 9.85788e-14)
(-1.36809e-09 0.00288586 9.93866e-14)
(-1.37164e-09 0.00289203 9.86539e-14)
(-1.37463e-09 0.00289779 5.31979e-14)
(-1.37324e-09 0.0028987 5.31361e-14)
(-1.37623e-09 0.00290446 9.85564e-14)
(-1.37978e-09 0.00291063 9.94028e-14)
(-1.38332e-09 0.0029168 9.86264e-14)
(-1.38632e-09 0.00292256 5.32205e-14)
(-1.38492e-09 0.00292347 5.3106e-14)
(-1.38792e-09 0.00292923 9.85839e-14)
(-1.39145e-09 0.0029354 9.93629e-14)
(-1.39501e-09 0.00294157 9.86628e-14)
(-1.39799e-09 0.00294733 5.31703e-14)
(-1.39662e-09 0.00294824 5.316e-14)
(-1.39958e-09 0.002954 9.85133e-14)
(-1.40317e-09 0.00296017 9.9439e-14)
(-1.40665e-09 0.00296634 9.85608e-14)
(-1.40973e-09 0.0029721 5.32868e-14)
(-1.40823e-09 0.00297301 5.3012e-14)
(-1.41136e-09 0.00297877 9.86894e-14)
(-1.41472e-09 0.00298494 9.92126e-14)
(-1.4185e-09 0.00299112 9.88309e-14)
(-1.4212e-09 0.00299688 5.29449e-14)
(-1.42018e-09 0.00299778 5.34319e-14)
(-1.4227e-09 0.00300354 9.8179e-14)
(-1.42684e-09 0.00300971 1.00248e-13)
(-1.42969e-09 0.00301591 1.00268e-13)
(-1.43383e-09 0.00302208 9.83076e-14)
(-1.43635e-09 0.00302784 5.35107e-14)
(-1.43533e-09 0.00302875 5.29048e-14)
(-1.43803e-09 0.00303451 9.87719e-14)
(-1.4418e-09 0.00304068 9.92649e-14)
(-1.44517e-09 0.00304685 9.87698e-14)
(-1.4483e-09 0.00305261 5.3127e-14)
(-1.4468e-09 0.00305352 5.3201e-14)
(-1.44987e-09 0.00305928 9.8535e-14)
(-1.45336e-09 0.00306545 9.94409e-14)
(-1.45695e-09 0.00307162 9.86273e-14)
(-1.45991e-09 0.00307738 5.32283e-14)
(-1.45854e-09 0.00307829 5.31222e-14)
(-1.46151e-09 0.00308405 9.85862e-14)
(-1.46507e-09 0.00309022 9.93987e-14)
(-1.46861e-09 0.00309639 9.86474e-14)
(-1.47161e-09 0.00310215 5.3212e-14)
(-1.47021e-09 0.00310306 5.31257e-14)
(-1.47321e-09 0.00310882 9.85834e-14)
(-1.47675e-09 0.00311499 9.93885e-14)
(-1.4803e-09 0.00312116 9.86529e-14)
(-1.48329e-09 0.00312692 5.31966e-14)
(-1.48189e-09 0.00312783 5.31389e-14)
(-1.48489e-09 0.00313359 9.8563e-14)
(-1.48843e-09 0.00313976 9.94022e-14)
(-1.49198e-09 0.00314594 9.86302e-14)
(-1.49497e-09 0.0031517 5.3213e-14)
(-1.49358e-09 0.0031526 5.31182e-14)
(-1.49657e-09 0.00315836 9.85778e-14)
(-1.50012e-09 0.00316454 9.93803e-14)
(-1.50366e-09 0.00317071 9.86428e-14)
(-1.50666e-09 0.00317647 5.31953e-14)
(-1.50526e-09 0.00317737 5.31294e-14)
(-1.50826e-09 0.00318313 9.85639e-14)
(-1.51179e-09 0.00318931 9.93827e-14)
(-1.51535e-09 0.00319548 9.86372e-14)
(-1.51832e-09 0.00320124 5.31879e-14)
(-1.51696e-09 0.00320215 5.31409e-14)
(-1.51991e-09 0.00320791 9.85364e-14)
(-1.52351e-09 0.00321408 9.94163e-14)
(-1.52699e-09 0.00322025 9.85786e-14)
(-1.53007e-09 0.00322601 5.32616e-14)
(-1.52856e-09 0.00322692 5.30361e-14)
(-1.5317e-09 0.00323268 9.86696e-14)
(-1.53506e-09 0.00323885 9.92335e-14)
(-1.53884e-09 0.00324502 9.88058e-14)
(-1.54154e-09 0.00325078 5.29633e-14)
(-1.54051e-09 0.00325169 5.34129e-14)
(-1.54304e-09 0.00325745 9.82029e-14)
(-1.54717e-09 0.00326362 1.00226e-13)
(-1.55003e-09 0.00326981 1.00287e-13)
(-1.55416e-09 0.00327599 9.82797e-14)
(-1.55669e-09 0.00328175 5.35278e-14)
(-1.55566e-09 0.00328265 5.28841e-14)
(-1.55837e-09 0.00328841 9.87932e-14)
(-1.56214e-09 0.00329458 9.92397e-14)
(-1.56551e-09 0.00330076 9.8786e-14)
(-1.56864e-09 0.00330652 5.31004e-14)
(-1.56714e-09 0.00330742 5.32243e-14)
(-1.57021e-09 0.00331318 9.85126e-14)
(-1.57369e-09 0.00331936 9.94601e-14)
(-1.57729e-09 0.00332553 9.85999e-14)
(-1.58024e-09 0.00333129 5.32462e-14)
(-1.57888e-09 0.00333219 5.31015e-14)
(-1.58185e-09 0.00333795 9.86084e-14)
(-1.58541e-09 0.00334413 9.9374e-14)
(-1.58894e-09 0.0033503 9.86645e-14)
(-1.59195e-09 0.00335606 5.31858e-14)
(-1.59055e-09 0.00335697 5.31493e-14)
(-1.59354e-09 0.00336273 9.85618e-14)
(-1.59708e-09 0.0033689 9.9408e-14)
(-1.60063e-09 0.00337507 9.86268e-14)
(-1.60362e-09 0.00338083 5.32139e-14)
(-1.60223e-09 0.00338174 5.31199e-14)
(-1.60522e-09 0.0033875 9.85836e-14)
(-1.60877e-09 0.00339367 9.93812e-14)
(-1.61231e-09 0.00339984 9.86437e-14)
(-1.61531e-09 0.0034056 5.31932e-14)
(-1.61391e-09 0.00340651 5.31339e-14)
(-1.61691e-09 0.00341227 9.85677e-14)
(-1.62044e-09 0.00341844 9.93858e-14)
(-1.62401e-09 0.00342461 9.86367e-14)
(-1.62698e-09 0.00343037 5.31875e-14)
(-1.62561e-09 0.00343128 5.3144e-14)
(-1.62857e-09 0.00343704 9.85417e-14)
(-1.63216e-09 0.00344321 9.94183e-14)
(-1.63564e-09 0.00344938 9.85797e-14)
(-1.63872e-09 0.00345515 5.32601e-14)
(-1.63722e-09 0.00345605 5.30405e-14)
(-1.64035e-09 0.00346181 9.86739e-14)
(-1.64372e-09 0.00346798 9.9237e-14)
(-1.64749e-09 0.00347416 9.8806e-14)
(-1.65019e-09 0.00347992 5.29631e-14)
(-1.64917e-09 0.00348082 5.34162e-14)
(-1.65169e-09 0.00348658 9.82085e-14)
(-1.65583e-09 0.00349276 1.00228e-13)
(-1.65868e-09 0.00349895 1.00288e-13)
(-1.66282e-09 0.00350512 9.82778e-14)
(-1.66534e-09 0.00351088 5.35265e-14)
(-1.66432e-09 0.00351179 5.28862e-14)
(-1.66702e-09 0.00351755 9.87967e-14)
(-1.67079e-09 0.00352372 9.924e-14)
(-1.67416e-09 0.00352989 9.87856e-14)
(-1.67729e-09 0.00353565 5.3098e-14)
(-1.67579e-09 0.00353656 5.32277e-14)
(-1.67887e-09 0.00354232 9.85151e-14)
(-1.68235e-09 0.00354849 9.9462e-14)
(-1.68594e-09 0.00355466 9.85984e-14)
(-1.6889e-09 0.00356042 5.32453e-14)
(-1.68753e-09 0.00356133 5.31037e-14)
(-1.6905e-09 0.00356709 9.86124e-14)
(-1.69406e-09 0.00357326 9.93747e-14)
(-1.6976e-09 0.00357943 9.86647e-14)
(-1.7006e-09 0.00358519 5.31836e-14)
(-1.6992e-09 0.0035861 5.31532e-14)
(-1.7022e-09 0.00359186 9.85643e-14)
(-1.70574e-09 0.00359803 9.94109e-14)
(-1.70929e-09 0.00360421 9.8625e-14)
(-1.71228e-09 0.00360997 5.32146e-14)
(-1.71089e-09 0.00361087 5.31206e-14)
(-1.71388e-09 0.00361663 9.85904e-14)
(-1.71742e-09 0.0036228 9.9379e-14)
(-1.72097e-09 0.00362898 9.8649e-14)
(-1.72396e-09 0.00363474 5.31851e-14)
(-1.72257e-09 0.00363564 5.31464e-14)
(-1.72556e-09 0.0036414 9.85593e-14)
(-1.72911e-09 0.00364758 9.94041e-14)
(-1.73265e-09 0.00365375 9.86158e-14)
(-1.73565e-09 0.00365951 5.32143e-14)
(-1.73425e-09 0.00366041 5.31113e-14)
(-1.73725e-09 0.00366617 9.85925e-14)
(-1.74078e-09 0.00367235 9.93604e-14)
(-1.74434e-09 0.00367852 9.86575e-14)
(-1.74732e-09 0.00368428 5.31604e-14)
(-1.74595e-09 0.00368519 5.31698e-14)
(-1.74891e-09 0.00369095 9.85185e-14)
(-1.7525e-09 0.00369712 9.94414e-14)
(-1.75598e-09 0.00370329 9.85524e-14)
(-1.75906e-09 0.00370905 5.32815e-14)
(-1.75756e-09 0.00370996 5.30181e-14)
(-1.76069e-09 0.00371572 9.86994e-14)
(-1.76405e-09 0.00372189 9.92118e-14)
(-1.76783e-09 0.00372806 9.88275e-14)
(-1.77053e-09 0.00373382 5.29361e-14)
(-1.76951e-09 0.00373473 5.34425e-14)
(-1.77203e-09 0.00374049 9.81854e-14)
(-1.77617e-09 0.00374666 1.00252e-13)
(-1.77902e-09 0.00375285 1.0026e-13)
(-1.78315e-09 0.00375903 9.82975e-14)
(-1.78568e-09 0.00376479 5.34982e-14)
(-1.78466e-09 0.00376569 5.29115e-14)
(-1.78736e-09 0.00377145 9.87714e-14)
(-1.79113e-09 0.00377763 9.9262e-14)
(-1.7945e-09 0.0037838 9.87564e-14)
(-1.79763e-09 0.00378956 5.31192e-14)
(-1.79613e-09 0.00379046 5.32039e-14)
(-1.7992e-09 0.00379622 9.85393e-14)
(-1.80268e-09 0.0038024 9.94348e-14)
(-1.80628e-09 0.00380857 9.86189e-14)
(-1.80924e-09 0.00381433 5.3217e-14)
(-1.80787e-09 0.00381524 5.31295e-14)