/*--------------------------------*- C++ -*----------------------------------*\
| =========                 |                                                 |
| \\      /  F ield         | OpenFOAM: The Open Source CFD Toolbox           |
|  \\    /   O peration     | Version:  2206                                  |
|   \\  /    A nd           | Website:  www.openfoam.com                      |
|    \\/     M anipulation  |                                                 |
\*---------------------------------------------------------------------------*/
FoamFile
{
    version     2.0;
    format      ascii;
    arch        "LSB;label=32;scalar=64";
    class       volScalarField;
    location    "70";
    object      p;
}
// * * * * * * * * * * * * * * * * * * * * * * * * * * * * * * * * * * * * * //

dimensions      [0 2 -2 0 0 0 0];

internalField   nonuniform List<scalar> 
100000
(
-2.44668e-08
1.31267e-07
4.90954e-07
6.0597e-07
5.29708e-07
6.18492e-07
5.86126e-07
6.11345e-07
6.25065e-07
6.35449e-07
6.47841e-07
6.65535e-07
6.72735e-07
6.87348e-07
7.01112e-07
7.15324e-07
7.28112e-07
7.44942e-07
7.60423e-07
7.80923e-07
7.98938e-07
8.1863e-07
8.39107e-07
8.62504e-07
8.85948e-07
9.12859e-07
9.39121e-07
9.64845e-07
9.93861e-07
1.02297e-06
1.05513e-06
1.08724e-06
1.118e-06
1.15296e-06
1.18696e-06
1.22508e-06
1.26202e-06
1.29871e-06
1.33849e-06
1.37836e-06
1.42131e-06
1.46404e-06
1.50557e-06
1.55109e-06
1.59582e-06
1.64445e-06
1.69206e-06
1.73922e-06
1.78964e-06
1.83995e-06
1.8935e-06
1.94664e-06
1.99874e-06
2.05465e-06
2.10992e-06
2.16894e-06
2.22705e-06
2.28458e-06
2.34549e-06
2.40615e-06
2.47018e-06
2.53366e-06
2.59624e-06
2.66246e-06
2.72822e-06
2.79749e-06
2.86615e-06
2.93386e-06
3.00539e-06
3.07612e-06
3.1509e-06
3.22427e-06
3.29781e-06
3.37365e-06
3.45069e-06
3.52922e-06
3.60976e-06
3.6908e-06
3.77009e-06
3.85371e-06
3.9363e-06
4.0229e-06
4.1084e-06
4.19344e-06
4.28177e-06
4.36989e-06
4.46137e-06
4.55228e-06
4.64229e-06
4.73596e-06
4.82911e-06
4.92588e-06
5.02185e-06
5.11712e-06
5.21588e-06
5.31428e-06
5.41614e-06
5.51734e-06
5.61772e-06
5.7217e-06
5.82521e-06
5.93229e-06
6.03862e-06
6.14421e-06
6.25331e-06
6.36202e-06
6.47425e-06
6.58575e-06
6.6965e-06
6.81076e-06
6.92467e-06
7.04199e-06
7.15877e-06
7.27452e-06
7.39418e-06
7.51293e-06
7.63584e-06
7.75722e-06
7.87888e-06
8.00274e-06
8.12789e-06
8.25444e-06
8.38307e-06
8.51212e-06
8.63951e-06
8.77115e-06
8.90181e-06
9.03643e-06
9.17e-06
9.30306e-06
9.43946e-06
9.5756e-06
9.71514e-06
9.85406e-06
9.99213e-06
1.01338e-05
1.0275e-05
1.04198e-05
1.05638e-05
1.07071e-05
1.08539e-05
1.10003e-05
1.11502e-05
1.12994e-05
1.14478e-05
1.15998e-05
1.17514e-05
1.19065e-05
1.20608e-05
1.22144e-05
1.23716e-05
1.25283e-05
1.26885e-05
1.2848e-05
1.30068e-05
1.31691e-05
1.3331e-05
1.34964e-05
1.3661e-05
1.3825e-05
1.39924e-05
1.41595e-05
1.433e-05
1.45e-05
1.46689e-05
1.48417e-05
1.50136e-05
1.51897e-05
1.53642e-05
1.55391e-05
1.57161e-05
1.58944e-05
1.60741e-05
1.62559e-05
1.64381e-05
1.66187e-05
1.68035e-05
1.69873e-05
1.71751e-05
1.73619e-05
1.75481e-05
1.77376e-05
1.79269e-05
1.81196e-05
1.83117e-05
1.8503e-05
1.86978e-05
1.88922e-05
1.90901e-05
1.92873e-05
1.94837e-05
1.96837e-05
1.98832e-05
2.00863e-05
2.02887e-05
2.04903e-05
2.06954e-05
2.09001e-05
2.11083e-05
2.13159e-05
2.15226e-05
2.17329e-05
2.19428e-05
2.21562e-05
2.23688e-05
2.25808e-05
2.27962e-05
2.30113e-05
2.32297e-05
2.34477e-05
2.36646e-05
2.38854e-05
2.41053e-05
2.43294e-05
2.45519e-05
2.47748e-05
2.49998e-05
2.52261e-05
2.54538e-05
2.56836e-05
2.59138e-05
2.61423e-05
2.63751e-05
2.6607e-05
2.68427e-05
2.70774e-05
2.73116e-05
2.75492e-05
2.77865e-05
2.80272e-05
2.82672e-05
2.85065e-05
2.87493e-05
2.89917e-05
2.92376e-05
2.94828e-05
2.97272e-05
2.99751e-05
3.02227e-05
3.04737e-05
3.07241e-05
3.09737e-05
3.12268e-05
3.14795e-05
3.17357e-05
3.19912e-05
3.22459e-05
3.25042e-05
3.27621e-05
3.30235e-05
3.32841e-05
3.3544e-05
3.38075e-05
3.40705e-05
3.4337e-05
3.46028e-05
3.48679e-05
3.51365e-05
3.54047e-05
3.56763e-05
3.59474e-05
3.62175e-05
3.64915e-05
3.67645e-05
3.70417e-05
3.73174e-05
3.75934e-05
3.78715e-05
3.8151e-05
3.84318e-05
3.87148e-05
3.89981e-05
3.92798e-05
3.95657e-05
3.98507e-05
4.01396e-05
4.04275e-05
4.07148e-05
4.10055e-05
4.1296e-05
4.15898e-05
4.1883e-05
4.21754e-05
4.24713e-05
4.27669e-05
4.30659e-05
4.33642e-05
4.36618e-05
4.39629e-05
4.42636e-05
4.45678e-05
4.48713e-05
4.5174e-05
4.54803e-05
4.57861e-05
4.60955e-05
4.64041e-05
4.6712e-05
4.70234e-05
4.73344e-05
4.7649e-05
4.79627e-05
4.82758e-05
4.85923e-05
4.89086e-05
4.92282e-05
4.95473e-05
4.98653e-05
5.01872e-05
5.05083e-05
5.08335e-05
5.11571e-05
5.14811e-05
5.18072e-05
5.21347e-05
5.24635e-05
5.27944e-05
5.31257e-05
5.34554e-05
5.37893e-05
5.41223e-05
5.44592e-05
5.4795e-05
5.51304e-05
5.54691e-05
5.58075e-05
5.61493e-05
5.64905e-05
5.68308e-05
5.71748e-05
5.75183e-05
5.78653e-05
5.82116e-05
5.85572e-05
5.89062e-05
5.92549e-05
5.96071e-05
5.99586e-05
6.03093e-05
6.06635e-05
6.10173e-05
6.13747e-05
6.17313e-05
6.20872e-05
6.24466e-05
6.28056e-05
6.31681e-05
6.35298e-05
6.38909e-05
6.42554e-05
6.46196e-05
6.49873e-05
6.53542e-05
6.57204e-05
6.60901e-05
6.64594e-05
6.68322e-05
6.72044e-05
6.75756e-05
6.79507e-05
6.83248e-05
6.87032e-05
6.908e-05
6.94571e-05
6.98364e-05
7.02169e-05
7.05989e-05
7.0983e-05
7.13674e-05
7.17503e-05
7.21373e-05
7.25234e-05
7.29134e-05
7.33024e-05
7.36909e-05
7.40827e-05
7.44743e-05
7.48692e-05
7.52636e-05
7.56571e-05
7.60542e-05
7.64508e-05
7.6851e-05
7.72504e-05
7.76491e-05
7.80513e-05
7.84531e-05
7.88585e-05
7.92631e-05
7.96669e-05
8.00743e-05
8.04812e-05
8.08917e-05
8.13015e-05
8.17105e-05
8.21231e-05
8.25352e-05
8.29508e-05
8.33657e-05
8.37799e-05
8.41976e-05
8.46149e-05
8.50357e-05
8.54559e-05
8.5875e-05
8.62981e-05
8.67202e-05
8.71466e-05
8.75713e-05
8.79964e-05
8.84237e-05
8.88523e-05
8.92822e-05
8.97143e-05
9.01467e-05
9.05775e-05
9.10125e-05
9.14466e-05
9.18846e-05
9.23216e-05
9.2758e-05
9.31979e-05
9.36374e-05
9.40803e-05
9.45226e-05
9.49641e-05
9.54092e-05
9.58538e-05
9.6302e-05
9.67494e-05
9.7196e-05
9.76462e-05
9.8096e-05
9.85493e-05
9.90019e-05
9.94538e-05
9.99091e-05
0.000100364
0.000100823
0.00010128
0.000101737
0.000102198
0.000102658
0.000103122
0.000103584
0.000104047
0.000104512
0.000104978
0.000105446
0.000105914
0.000106382
0.000106852
0.000107323
0.000107797
0.00010827
0.000108742
0.000109219
0.000109694
0.000110173
0.000110651
0.00011113
0.00011161
0.000112092
0.000112575
0.00011306
0.000113546
0.00011403
0.000114518
0.000115005
0.000115496
0.000115986
0.000116476
0.000116969
0.000117461
0.000117957
0.000118453
0.000118948
0.000119446
0.000119943
0.000120445
0.000120945
0.000121445
0.000121948
0.000122451
0.000122958
0.000123464
0.000123969
0.000124477
0.000124985
0.000125497
0.000126008
0.000126518
0.000127031
0.000127545
0.000128061
0.000128577
0.000129093
0.000129612
0.00013013
0.000130652
0.000131173
0.000131693
0.000132218
0.000132741
0.000133268
0.000133794
0.00013432
0.000134849
0.000135379
0.00013591
0.000136443
0.000136976
0.000137508
0.000138044
0.00013858
0.000139119
0.000139657
0.000140194
0.000140735
0.000141276
0.00014182
0.000142363
0.000142906
0.000143452
0.000143998
0.000144547
0.000145096
0.000145644
0.000146195
0.000146746
0.0001473
0.000147854
0.000148407
0.000148963
0.000149519
0.000150079
0.000150638
0.000151196
0.000151758
0.000152319
0.000152884
0.000153448
0.000154011
0.000154578
0.000155144
0.000155714
0.000156283
0.000156852
0.000157424
0.000157995
0.00015857
0.000159145
0.000159718
0.000160295
0.000160872
0.000161452
0.000162031
0.000162611
0.000163192
0.000163775
0.000164359
0.000164946
0.000165532
0.000166117
0.000166707
0.000167295
0.000167887
0.000168479
0.000169069
0.000169663
0.000170257
0.000170854
0.000171451
0.000172047
0.000172646
0.000173245
0.000173847
0.000174449
0.00017505
0.000175654
0.000176258
0.000176866
0.000177473
0.000178079
0.000178688
0.000179298
0.00017991
0.000180522
0.000181134
0.000181748
0.000182363
0.000182981
0.000183598
0.000184214
0.000184834
0.000185454
0.000186077
0.000186699
0.000187321
0.000187946
0.00018857
0.000189199
0.000189826
0.000190453
0.000191083
0.000191713
0.000192346
0.00019298
0.000193615
0.000194248
0.000194885
0.000195521
0.000196162
0.000196801
0.000197439
0.000198081
0.000198723
0.000199368
0.000200013
0.000200657
0.000201304
0.000201951
0.000202601
0.000203251
0.0002039
0.000204552
0.000205204
0.00020586
0.000206515
0.000207169
0.000207826
0.000208484
0.000209144
0.000209804
0.000210463
0.000211126
0.000211789
0.000212454
0.00021312
0.000213784
0.000214452
0.000215119
0.00021579
0.000216461
0.00021713
0.000217803
0.000218476
0.000219152
0.000219828
0.000220502
0.000221181
0.000221858
0.00022254
0.00022322
0.000223901
0.000224583
0.000225267
0.000225952
0.00022664
0.000227328
0.000228014
0.000228704
0.000229394
0.000230087
0.00023078
0.000231471
0.000232167
0.000232861
0.00023356
0.000234257
0.000234954
0.000235655
0.000236355
0.000237058
0.000237761
0.000238463
0.000239169
0.000239874
0.000240583
0.000241291
0.000241998
0.000242708
0.000243419
0.000244133
0.000244846
0.000245558
0.000246274
0.00024699
0.000247709
0.000248427
0.000249144
0.000249865
0.000250586
0.00025131
0.000252034
0.000252756
0.000253483
0.000254208
0.000254938
0.000255666
0.000256394
0.000257125
0.000257857
0.00025859
0.000259326
0.000260062
0.000260796
0.000261534
0.000262272
0.000263013
0.000263753
0.000264493
0.000265236
0.000265979
0.000266725
0.000267471
0.000268216
0.000268964
0.000269712
0.000270464
0.000271215
0.000271965
0.000272718
0.000273471
0.000274228
0.000274984
0.000275739
0.000276498
0.000277256
0.000278018
0.000278779
0.000279539
0.000280303
0.000281067
0.000281834
0.0002826
0.000283366
0.000284135
0.000284903
0.000285675
0.000286447
0.000287217
0.000287992
0.000288765
0.000289543
0.000290319
0.000291095
0.000291875
0.000292653
0.000293436
0.000294217
0.000294999
0.000295783
0.000296568
0.000297354
0.000298143
0.000298932
0.000299719
0.000300511
0.000301301
0.000302096
0.000302889
0.000303682
0.000304478
0.000305274
0.000306074
0.000306873
0.000307671
0.000308472
0.000309273
0.000310078
0.000310882
0.000311685
0.000312492
0.000313298
0.000314108
0.000314917
0.000315725
0.000316537
0.000317349
0.000318164
0.000318978
0.000319791
0.000320608
0.000321425
0.000322245
0.000323064
0.000323883
0.000324705
0.000325527
0.000326352
0.000327177
0.000328001
0.000328828
0.000329655
0.000330486
0.000331315
0.000332144
0.000332976
0.000333809
0.000334644
0.00033548
0.000336317
0.000337152
0.000337992
0.00033883
0.000339673
0.000340514
0.000341355
0.0003422
0.000343044
0.000343891
0.000344738
0.000345584
0.000346433
0.000347282
0.000348135
0.000348987
0.000349838
0.000350693
0.000351547
0.000352405
0.000353262
0.000354118
0.000354978
0.000355838
0.000356701
0.000357563
0.000358424
0.000359289
0.000360154
0.000361022
0.000361889
0.000362756
0.000363626
0.000364496
0.000365369
0.000366242
0.000367113
0.000367989
0.000368864
0.000369742
0.00037062
0.000371497
0.000372377
0.000373257
0.000374141
0.000375023
0.000375906
0.000376791
0.000377677
0.000378565
0.000379454
0.000380345
0.000381233
0.000382126
0.000383017
0.000383913
0.000384808
0.000385702
0.000386599
0.000387496
0.000388397
0.000389297
0.000390196
0.000391098
0.000392001
0.000392906
0.000393812
0.000394716
0.000395624
0.000396531
0.000397442
0.000398352
0.000399262
0.000400175
0.000401087
0.000402003
0.000402919
0.000403833
0.000404751
0.000405669
0.00040659
0.000407511
0.000408431
0.000409354
0.000410277
0.000411203
0.000412129
0.000413054
0.000413982
0.00041491
0.000415842
0.000416773
0.000417703
0.000418636
0.00041957
0.000420506
0.000421443
0.000422381
0.000423318
0.000424259
0.000425198
0.000426142
0.000427084
0.000428026
0.000428972
0.000429917
0.000430866
0.000431813
0.000432761
0.000433711
0.000434661
0.000435615
0.000436568
0.00043752
0.000438476
0.000439432
0.000440391
0.000441349
0.000442306
0.000443267
0.000444228
0.000445192
0.000446155
0.000447118
0.000448084
0.00044905
0.000450019
0.000450987
0.000451955
0.000452926
0.000453897
0.000454872
0.000455845
0.000456818
0.000457795
0.000458771
0.00045975
0.000460729
0.000461707
0.000462689
0.00046367
0.000464655
0.000465638
0.000466622
0.000467608
0.000468595
0.000469584
0.000470575
0.000471566
0.000472556
0.000473549
0.000474542
0.000475539
0.000476535
0.00047753
0.000478528
0.000479527
0.000480528
0.000481529
0.00048253
0.000483534
0.000484537
0.000485544
0.00048655
0.000487555
0.000488564
0.000489573
0.000490585
0.000491596
0.000492607
0.000493621
0.000494635
0.000495652
0.000496668
0.000497684
0.000498703
0.000499722
0.000500745
0.000501766
0.000502787
0.000503811
0.000504836
0.000505863
0.00050689
0.000507916
0.000508946
0.000509974
0.000511008
0.000512039
0.000513071
0.000514105
0.00051514
0.000516177
0.000517216
0.000518255
0.000519292
0.000520334
0.000521375
0.00052242
0.000523463
0.000524506
0.000525553
0.000526599
0.000527649
0.000528698
0.000529746
0.000530798
0.000531849
0.000532904
0.000533958
0.000535012
0.000536069
0.000537125
0.000538185
0.000539244
0.000540303
0.000541365
0.000542427
0.000543492
0.000544556
0.00054562
0.000546687
0.000547754
0.000548825
0.000549894
0.000550963
0.000552035
0.000553107
0.000554183
0.000555258
0.000556332
0.000557409
0.000558487
0.000559567
0.000560647
0.000561726
0.000562809
0.000563891
0.000564977
0.000566062
0.000567147
0.000568234
0.000569323
0.000570412
0.000571504
0.000572597
0.000573687
0.000574782
0.000575876
0.000576974
0.000578071
0.000579167
0.000580267
0.000581366
0.000582469
0.000583571
0.000584673
0.000585777
0.000586882
0.00058799
0.000589097
0.000590204
0.000591314
0.000592424
0.000593537
0.000594649
0.000595761
0.000596876
0.000597991
0.000599109
0.000600227
0.000601344
0.000602464
0.000603584
0.000604708
0.00060583
0.000606952
0.000608078
0.000609203
0.000610332
0.00061146
0.000612587
0.000613718
0.000614848
0.000615982
0.000617114
0.000618247
0.000619382
0.000620519
0.000621657
0.000622797
0.000623937
0.000625075
0.000626218
0.00062736
0.000628506
0.000629651
0.000630795
0.000631943
0.00063309
0.000634241
0.000635391
0.000636541
0.000637693
0.000638846
0.000640002
0.000641157
0.000642312
0.00064347
0.000644627
0.000645789
0.000646949
0.000648109
0.000649272
0.000650435
0.000651601
0.000652767
0.000653931
0.0006551
0.000656268
0.000657439
0.00065861
0.00065978
0.000660954
0.000662127
0.000663303
0.000664479
0.000665654
0.000666833
0.000668011
0.000669193
0.000670374
0.000671554
0.000672738
0.000673922
0.000675109
0.000676295
0.000677481
0.000678669
0.000679859
0.000681049
0.000682243
0.000683436
0.000684628
0.000685824
0.000687019
0.000688218
0.000689416
0.000690613
0.000691814
0.000693015
0.000694219
0.000695422
0.000696624
0.00069783
0.000699036
0.000700245
0.000701453
0.000702661
0.000703872
0.000705083
0.000706297
0.000707511
0.000708724
0.00070994
0.000711156
0.000712376
0.000713594
0.000714812
0.000716034
0.000717255
0.00071848
0.000719703
0.000720927
0.000722153
0.000723379
0.000724609
0.000725838
0.000727066
0.000728299
0.00072953
0.000730765
0.000731999
0.000733233
0.000734469
0.000735707
0.000736945
0.000738186
0.000739428
0.000740668
0.000741912
0.000743155
0.000744402
0.000745648
0.000746893
0.000748142
0.00074939
0.000750642
0.000751894
0.000753144
0.000754398
0.000755652
0.000756909
0.000758165
0.000759421
0.00076068
0.000761939
0.000763201
0.000764463
0.000765723
0.000766988
0.000768252
0.000769519
0.000770786
0.000772052
0.000773321
0.00077459
0.000775863
0.000777135
0.000778406
0.000779681
0.000780955
0.000782233
0.00078351
0.000784786
0.000786066
0.000787345
0.000788628
0.00078991
0.000791192
0.000792477
0.000793761
0.000795049
0.000796336
0.000797624
0.000798913
0.000800204
0.000801496
0.00080279
0.000804084
0.000805377
0.000806674
0.000807971
0.000809271
0.00081057
0.000811868
0.00081317
0.000814472
0.000815777
0.000817081
0.000818385
0.000819692
0.000820999
0.000822309
0.000823619
0.000824928
0.00082624
0.000827552
0.000828867
0.000830182
0.000831496
0.000832813
0.00083413
0.000835451
0.000836771
0.00083809
0.000839413
0.000840735
0.000842061
0.000843385
0.00084471
0.000846038
0.000847365
0.000848696
0.000850026
0.000851355
0.000852689
0.000854021
0.000855357
0.000856692
0.000858027
0.000859365
0.000860703
0.000862043
0.000863385
0.000864728
0.000866069
0.000867414
0.000868758
0.000870106
0.000871453
0.0008728
0.00087415
0.000875499
0.000876853
0.000878205
0.000879556
0.000880912
0.000882266
0.000883625
0.000884982
0.000886339
0.000887699
0.000889059
0.000890422
0.000891785
0.000893147
0.000894513
0.000895878
0.000897246
0.000898614
0.000899981
0.000901352
0.000902722
0.000904096
0.000905469
0.000906841
0.000908217
0.000909592
0.000910971
0.000912349
0.000913726
0.000915107
0.000916488
0.000917872
0.000919255
0.000920638
0.000922024
0.000923409
0.000924799
0.000926187
0.000927575
0.000928966
0.000930358
0.000931751
0.000933146
0.000934542
0.000935936
0.000937334
0.000938731
0.000940133
0.000941533
0.000942933
0.000944336
0.000945738
0.000947145
0.00094855
0.000949955
0.000951363
0.000952771
0.000954182
0.000955593
0.000957003
0.000958416
0.000959829
0.000961246
0.000962662
0.000964077
0.000965496
0.000966914
0.000968335
0.000969756
0.000971177
0.0009726
0.000974024
0.000975451
0.000976877
0.000978302
0.000979731
0.00098116
0.000982592
0.000984023
0.000985453
0.000986888
0.000988321
0.000989759
0.000991195
0.000992631
0.000994069
0.000995509
0.00099695
0.000998394
0.000999837
0.00100128
0.00100273
0.00100417
0.00100562
0.00100707
0.00100852
0.00100997
0.00101142
0.00101287
0.00101433
0.00101578
0.00101723
0.00101869
0.00102015
0.00102161
0.00102307
0.00102453
0.00102599
0.00102745
0.00102892
0.00103038
0.00103185
0.00103331
0.00103478
0.00103625
0.00103772
0.00103919
0.00104066
0.00104214
0.00104361
0.00104508
0.00104656
0.00104804
0.00104952
0.001051
0.00105248
0.00105396
0.00105544
0.00105692
0.00105841
0.00105989
0.00106138
0.00106287
0.00106436
0.00106585
0.00106734
0.00106883
0.00107032
0.00107182
0.00107331
0.00107481
0.0010763
0.0010778
0.0010793
0.0010808
0.00108231
0.00108381
0.00108531
0.00108681
0.00108832
0.00108983
0.00109133
0.00109284
0.00109435
0.00109586
0.00109738
0.00109889
0.0011004
0.00110192
0.00110343
0.00110495
0.00110647
0.00110799
0.00110951
0.00111103
0.00111255
0.00111407
0.0011156
0.00111712
0.00111865
0.00112018
0.0011217
0.00112323
0.00112476
0.0011263
0.00112783
0.00112936
0.0011309
0.00113243
0.00113397
0.00113551
0.00113704
0.00113858
0.00114012
0.00114167
0.00114321
0.00114476
0.0011463
0.00114785
0.00114939
0.00115094
0.00115249
0.00115404
0.00115559
0.00115714
0.0011587
0.00116025
0.00116181
0.00116337
0.00116492
0.00116648
0.00116804
0.0011696
0.00117116
0.00117273
0.00117429
0.00117586
0.00117742
0.00117899
0.00118056
0.00118213
0.0011837
0.00118527
0.00118684
0.00118841
0.00118999
0.00119156
0.00119314
0.00119472
0.00119629
0.00119787
0.00119946
0.00120104
0.00120262
0.0012042
0.00120579
0.00120737
0.00120896
0.00121055
0.00121213
0.00121373
0.00121532
0.00121691
0.0012185
0.00122009
0.00122169
0.00122329
0.00122488
0.00122648
0.00122808
0.00122968
0.00123128
0.00123289
0.00123449
0.00123609
0.0012377
0.00123931
0.00124091
0.00124252
0.00124413
0.00124574
0.00124736
0.00124897
0.00125058
0.0012522
0.00125381
0.00125543
0.00125705
0.00125867
0.00126029
0.00126191
0.00126353
0.00126515
0.00126678
0.0012684
0.00127003
0.00127166
0.00127329
0.00127491
0.00127655
0.00127818
0.00127981
0.00128144
0.00128308
0.00128471
0.00128635
0.00128799
0.00128963
0.00129126
0.00129291
0.00129455
0.00129619
0.00129784
0.00129948
0.00130113
0.00130277
0.00130442
0.00130607
0.00130772
0.00130937
0.00131103
0.00131268
0.00131434
0.00131599
0.00131765
0.0013193
0.00132096
0.00132262
0.00132429
0.00132595
0.00132761
0.00132927
0.00133094
0.00133261
0.00133427
0.00133594
0.00133761
0.00133928
0.00134095
0.00134262
0.0013443
0.00134597
0.00134765
0.00134932
0.001351
0.00135268
0.00135436
0.00135604
0.00135772
0.0013594
0.00136108
0.00136277
0.00136446
0.00136614
0.00136783
0.00136952
0.00137121
0.0013729
0.00137459
0.00137628
0.00137798
0.00137967
0.00138137
0.00138307
0.00138477
0.00138646
0.00138817
0.00138987
0.00139157
0.00139327
0.00139498
0.00139668
0.00139839
0.0014001
0.00140181
0.00140352
0.00140523
0.00140694
0.00140865
0.00141037
0.00141208
0.0014138
0.00141551
0.00141723
0.00141895
0.00142067
0.00142239
0.00142412
0.00142584
0.00142757
0.00142929
0.00143102
0.00143274
0.00143447
0.0014362
0.00143793
0.00143966
0.0014414
0.00144313
0.00144487
0.0014466
0.00144834
0.00145007
0.00145181
0.00145355
0.00145529
0.00145704
0.00145878
0.00146052
0.00146227
0.00146401
0.00146576
0.00146751
0.00146926
0.00147101
0.00147276
0.00147451
0.00147627
0.00147802
0.00147978
0.00148154
0.00148329
0.00148505
0.00148681
0.00148857
0.00149034
0.0014921
0.00149386
0.00149563
0.00149739
0.00149916
0.00150093
0.0015027
0.00150447
0.00150624
0.00150801
0.00150978
0.00151156
0.00151333
0.00151511
0.00151689
0.00151867
0.00152045
0.00152223
0.00152401
0.00152579
0.00152758
0.00152936
0.00153115
0.00153293
0.00153472
0.00153651
0.0015383
0.00154009
0.00154188
0.00154368
0.00154547
0.00154726
0.00154906
0.00155086
0.00155266
0.00155446
0.00155626
0.00155806
0.00155986
0.00156167
0.00156347
0.00156528
0.00156708
0.00156889
0.0015707
0.00157251
0.00157432
0.00157613
0.00157795
0.00157976
0.00158158
0.00158339
0.00158521
0.00158703
0.00158885
0.00159067
0.00159249
0.00159431
0.00159613
0.00159796
0.00159979
0.00160161
0.00160344
0.00160527
0.0016071
0.00160893
0.00161076
0.00161259
0.00161442
0.00161626
0.0016181
0.00161993
0.00162177
0.00162361
0.00162545
0.00162729
0.00162913
0.00163098
0.00163282
0.00163467
0.00163651
0.00163836
0.00164021
0.00164205
0.00164391
0.00164576
0.00164761
0.00164946
0.00165132
0.00165317
0.00165503
0.00165689
0.00165875
0.00166061
0.00166247
0.00166433
0.0016662
0.00166806
0.00166992
0.00167179
0.00167366
0.00167553
0.0016774
0.00167927
0.00168114
0.00168301
0.00168488
0.00168676
0.00168863
0.00169051
0.00169239
0.00169427
0.00169615
0.00169803
0.00169991
0.00170179
0.00170368
0.00170556
0.00170745
0.00170933
0.00171122
0.00171311
0.001715
0.00171689
0.00171878
0.00172068
0.00172257
0.00172446
0.00172636
0.00172826
0.00173016
0.00173206
0.00173396
0.00173586
0.00173776
0.00173967
0.00174157
0.00174348
0.00174538
0.00174729
0.0017492
0.00175111
0.00175302
0.00175493
0.00175685
0.00175876
0.00176068
0.00176259
0.00176451
0.00176643
0.00176835
0.00177027
0.00177219
0.00177411
0.00177604
0.00177796
0.00177989
0.00178181
0.00178374
0.00178567
0.0017876
0.00178953
0.00179146
0.00179339
0.00179533
0.00179726
0.0017992
0.00180114
0.00180307
0.00180501
0.00180695
0.0018089
0.00181084
0.00181278
0.00181472
0.00181667
0.00181862
0.00182056
0.00182251
0.00182446
0.00182641
0.00182836
0.00183032
0.00183227
0.00183422
0.00183618
0.00183814
0.0018401
0.00184206
0.00184401
0.00184598
0.00184794
0.0018499
0.00185187
0.00185383
0.0018558
0.00185776
0.00185973
0.0018617
0.00186367
0.00186564
0.00186762
0.00186959
0.00187157
0.00187354
0.00187552
0.00187749
0.00187947
0.00188145
0.00188343
0.00188542
0.0018874
0.00188938
0.00189137
0.00189335
0.00189534
0.00189733
0.00189932
0.00190131
0.0019033
0.00190529
0.00190728
0.00190928
0.00191127
0.00191327
0.00191527
0.00191726
0.00191926
0.00192127
0.00192327
0.00192527
0.00192727
0.00192928
0.00193129
0.00193329
0.0019353
0.00193731
0.00193932
0.00194133
0.00194335
0.00194536
0.00194737
0.00194939
0.0019514
0.00195342
0.00195544
0.00195746
0.00195948
0.0019615
0.00196352
0.00196555
0.00196757
0.0019696
0.00197162
0.00197365
0.00197568
0.00197771
0.00197974
0.00198177
0.00198381
0.00198584
0.00198787
0.00198991
0.00199195
0.00199399
0.00199602
0.00199806
0.00200011
0.00200215
0.00200419
0.00200623
0.00200828
0.00201033
0.00201238
0.00201442
0.00201647
0.00201852
0.00202057
0.00202263
0.00202468
0.00202674
0.00202879
0.00203085
0.00203291
0.00203497
0.00203703
0.00203909
0.00204115
0.00204321
0.00204528
0.00204735
0.00204941
0.00205148
0.00205355
0.00205562
0.00205769
0.00205976
0.00206183
0.0020639
0.00206598
0.00206806
0.00207013
0.00207221
0.00207429
0.00207637
0.00207845
0.00208053
0.00208261
0.0020847
0.00208678
0.00208887
0.00209096
0.00209304
0.00209513
0.00209722
0.00209932
0.00210141
0.0021035
0.00210559
0.00210769
0.00210979
0.00211188
0.00211398
0.00211608
0.00211818
0.00212029
0.00212239
0.00212449
0.0021266
0.0021287
0.00213081
0.00213292
0.00213503
0.00213714
0.00213925
0.00214136
0.00214348
0.00214559
0.0021477
0.00214982
0.00215194
0.00215406
0.00215618
0.0021583
0.00216042
0.00216254
0.00216467
0.00216679
0.00216892
0.00217104
0.00217317
0.0021753
0.00217743
0.00217956
0.00218169
0.00218383
0.00218596
0.00218809
0.00219023
0.00219237
0.00219451
0.00219665
0.00219878
0.00220093
0.00220307
0.00220521
0.00220736
0.0022095
0.00221165
0.00221379
0.00221594
0.00221809
0.00222024
0.00222239
0.00222455
0.0022267
0.00222886
0.00223101
0.00223317
0.00223533
0.00223749
0.00223965
0.00224181
0.00224397
0.00224614
0.0022483
0.00225047
0.00225263
0.0022548
0.00225697
0.00225914
0.00226131
0.00226348
0.00226565
0.00226783
0.00227
0.00227218
0.00227436
0.00227653
0.00227871
0.00228089
0.00228307
0.00228526
0.00228744
0.00228962
0.00229181
0.00229399
0.00229618
0.00229837
0.00230056
0.00230275
0.00230494
0.00230713
0.00230932
0.00231152
0.00231371
0.00231591
0.00231811
0.00232031
0.00232251
0.00232471
0.00232691
0.00232911
0.00233132
0.00233352
0.00233573
0.00233793
0.00234014
0.00234235
0.00234456
0.00234677
0.00234899
0.0023512
0.00235342
0.00235563
0.00235785
0.00236006
0.00236228
0.0023645
0.00236672
0.00236895
0.00237117
0.00237339
0.00237562
0.00237784
0.00238007
0.0023823
0.00238453
0.00238676
0.00238899
0.00239122
0.00239345
0.00239569
0.00239792
0.00240016
0.0024024
0.00240463
0.00240687
0.00240911
0.00241135
0.0024136
0.00241584
0.00241809
0.00242033
0.00242258
0.00242482
0.00242707
0.00242932
0.00243157
0.00243382
0.00243608
0.00243833
0.00244059
0.00244284
0.0024451
0.00244736
0.00244962
0.00245188
0.00245414
0.0024564
0.00245867
0.00246093
0.0024632
0.00246546
0.00246773
0.00247
0.00247227
0.00247454
0.00247681
0.00247909
0.00248136
0.00248363
0.00248591
0.00248819
0.00249046
0.00249274
0.00249502
0.0024973
0.00249959
0.00250187
0.00250415
0.00250644
0.00250872
0.00251101
0.0025133
0.00251559
0.00251788
0.00252017
0.00252246
0.00252476
0.00252705
0.00252935
0.00253164
0.00253394
0.00253624
0.00253854
0.00254084
0.00254314
0.00254544
0.00254775
0.00255006
0.00255236
0.00255467
0.00255698
0.00255929
0.0025616
0.00256391
0.00256622
0.00256853
0.00257085
0.00257317
0.00257548
0.0025778
0.00258012
0.00258244
0.00258476
0.00258708
0.0025894
0.00259173
0.00259405
0.00259638
0.0025987
0.00260103
0.00260336
0.00260569
0.00260802
0.00261035
0.00261269
0.00261502
0.00261736
0.0026197
0.00262203
0.00262437
0.00262671
0.00262905
0.00263139
0.00263373
0.00263608
0.00263842
0.00264077
0.00264311
0.00264546
0.00264781
0.00265016
0.00265251
0.00265486
0.00265721
0.00265957
0.00266192
0.00266428
0.00266664
0.002669
0.00267135
0.00267372
0.00267608
0.00267844
0.0026808
0.00268317
0.00268553
0.0026879
0.00269027
0.00269264
0.00269501
0.00269738
0.00269975
0.00270212
0.0027045
0.00270687
0.00270925
0.00271162
0.002714
0.00271638
0.00271876
0.00272114
0.00272352
0.00272591
0.00272829
0.00273068
0.00273306
0.00273545
0.00273784
0.00274023
0.00274262
0.00274501
0.0027474
0.0027498
0.00275219
0.00275459
0.00275698
0.00275938
0.00276178
0.00276418
0.00276658
0.00276898
0.00277139
0.00277379
0.0027762
0.0027786
0.00278101
0.00278342
0.00278583
0.00278824
0.00279065
0.00279306
0.00279548
0.00279789
0.00280031
0.00280272
0.00280514
0.00280756
0.00280998
0.0028124
0.00281482
0.00281725
0.00281967
0.00282209
0.00282452
0.00282695
0.00282938
0.00283181
0.00283423
0.00283667
0.0028391
0.00284153
0.00284397
0.0028464
0.00284884
0.00285128
0.00285371
0.00285615
0.00285859
0.00286104
0.00286348
0.00286592
0.00286837
0.00287081
0.00287326
0.00287571
0.00287815
0.00288061
0.00288306
0.00288551
0.00288796
0.00289041
0.00289287
0.00289533
0.00289778
0.00290024
0.0029027
0.00290516
0.00290762
0.00291009
0.00291255
0.00291502
0.00291748
0.00291995
0.00292241
0.00292489
0.00292736
0.00292982
0.0029323
0.00293477
0.00293725
0.00293972
0.00294219
0.00294467
0.00294715
0.00294963
0.00295211
0.00295459
0.00295707
0.00295956
0.00296204
0.00296453
0.00296701
0.0029695
0.00297199
0.00297448
0.00297697
0.00297946
0.00298195
0.00298445
0.00298694
0.00298944
0.00299193
0.00299443
0.00299693
0.00299943
0.00300193
0.00300443
0.00300694
0.00300944
0.00301195
0.00301445
0.00301696
0.00301947
0.00302198
0.00302449
0.003027
0.00302951
0.00303203
0.00303454
0.00303706
0.00303958
0.00304209
0.00304461
0.00304713
0.00304965
0.00305218
0.0030547
0.00305722
0.00305975
0.00306227
0.0030648
0.00306733
0.00306986
0.00307239
0.00307492
0.00307745
0.00307999
0.00308252
0.00308505
0.00308759
0.00309013
0.00309267
0.00309521
0.00309775
0.00310029
0.00310283
0.00310538
0.00310792
0.00311047
0.00311301
0.00311556
0.00311811
0.00312066
0.00312321
0.00312576
0.00312832
0.00313087
0.00313342
0.00313598
0.00313854
0.0031411
0.00314366
0.00314622
0.00314878
0.00315134
0.0031539
0.00315647
0.00315904
0.0031616
0.00316417
0.00316674
0.00316931
0.00317188
0.00317445
0.00317703
0.0031796
0.00318218
0.00318475
0.00318733
0.00318991
0.00319249
0.00319507
0.00319765
0.00320023
0.00320281
0.0032054
0.00320798
0.00321057
0.00321316
0.00321575
0.00321833
0.00322093
0.00322352
0.00322611
0.0032287
0.0032313
0.0032339
0.00323649
0.00323909
0.00324169
0.00324429
0.00324689
0.00324949
0.00325209
0.0032547
0.0032573
0.00325991
0.00326252
0.00326513
0.00326774
0.00327035
0.00327296
0.00327557
0.00327819
0.0032808
0.00328342
0.00328603
0.00328865
0.00329127
0.00329389
0.00329651
0.00329913
0.00330176
0.00330438
0.00330701
0.00330963
0.00331226
0.00331489
0.00331752
0.00332015
0.00332278
0.00332541
0.00332805
0.00333068
0.00333331
0.00333595
0.00333859
0.00334123
0.00334387
0.00334651
0.00334915
0.00335179
0.00335444
0.00335708
0.00335973
0.00336237
0.00336502
0.00336767