/*--------------------------------*- C++ -*----------------------------------*\
| =========                 |                                                 |
| \\      /  F ield         | OpenFOAM: The Open Source CFD Toolbox           |
|  \\    /   O peration     | Version:  2206                                  |
|   \\  /    A nd           | Website:  www.openfoam.com                      |
|    \\/     M anipulation  |                                                 |
\*---------------------------------------------------------------------------*/
FoamFile
{
    version     2.0;
    format      ascii;
    arch        "LSB;label=32;scalar=64";
    class       volScalarField;
    location    "70";
    object      p;
}
// * * * * * * * * * * * * * * * * * * * * * * * * * * * * * * * * * * * * * //

dimensions      [0 2 -2 0 0 0 0];

internalField   nonuniform List<scalar> 
50000
(
3.77906e-10
-2.14619e-09
2.25689e-09
1.08754e-08
1.93745e-08
3.08227e-08
4.31188e-08
5.82306e-08
7.43146e-08
9.27352e-08
1.12761e-07
1.34942e-07
1.58661e-07
1.8461e-07
2.12198e-07
2.41914e-07
2.73351e-07
3.06875e-07
3.42175e-07
3.79526e-07
4.18698e-07
4.59886e-07
5.02929e-07
5.47971e-07
5.94889e-07
6.43791e-07
6.94584e-07
7.47355e-07
8.02025e-07
8.58669e-07
9.17218e-07
9.77737e-07
1.04017e-06
1.10457e-06
1.17088e-06
1.23916e-06
1.30935e-06
1.38151e-06
1.4556e-06
1.53164e-06
1.60961e-06
1.68953e-06
1.77139e-06
1.8552e-06
1.94094e-06
2.02864e-06
2.11827e-06
2.20986e-06
2.30338e-06
2.39885e-06
2.49626e-06
2.59562e-06
2.69692e-06
2.80017e-06
2.90535e-06
3.01249e-06
3.12157e-06
3.2326e-06
3.34556e-06
3.46048e-06
3.57734e-06
3.69614e-06
3.81689e-06
3.93959e-06
4.06423e-06
4.19081e-06
4.31934e-06
4.44982e-06
4.58224e-06
4.71661e-06
4.85292e-06
4.99118e-06
5.13138e-06
5.27353e-06
5.41762e-06
5.56367e-06
5.71165e-06
5.86158e-06
6.01346e-06
6.16728e-06
6.32305e-06
6.48077e-06
6.64043e-06
6.80203e-06
6.96559e-06
7.13108e-06
7.29853e-06
7.46792e-06
7.63925e-06
7.81253e-06
7.98776e-06
8.16494e-06
8.34405e-06
8.52512e-06
8.70813e-06
8.89309e-06
9.07999e-06
9.26884e-06
9.45964e-06
9.65238e-06
9.84707e-06
1.00437e-05
1.02423e-05
1.04428e-05
1.06453e-05
1.08497e-05
1.10561e-05
1.12644e-05
1.14746e-05
1.16868e-05
1.1901e-05
1.21171e-05
1.23351e-05
1.25551e-05
1.2777e-05
1.30009e-05
1.32267e-05
1.34545e-05
1.36842e-05
1.39159e-05
1.41495e-05
1.43851e-05
1.46226e-05
1.4862e-05
1.51034e-05
1.53467e-05
1.5592e-05
1.58393e-05
1.60885e-05
1.63396e-05
1.65927e-05
1.68477e-05
1.71046e-05
1.73635e-05
1.76244e-05
1.78872e-05
1.8152e-05
1.84187e-05
1.86873e-05
1.89579e-05
1.92304e-05
1.95049e-05
1.97813e-05
2.00597e-05
2.034e-05
2.06223e-05
2.09065e-05
2.11927e-05
2.14808e-05
2.17708e-05
2.20628e-05
2.23568e-05
2.26527e-05
2.29505e-05
2.32503e-05
2.3552e-05
2.38557e-05
2.41613e-05
2.44689e-05
2.47784e-05
2.50899e-05
2.54033e-05
2.57186e-05
2.60359e-05
2.63552e-05
2.66764e-05
2.69995e-05
2.73246e-05
2.76516e-05
2.79806e-05
2.83115e-05
2.86444e-05
2.89792e-05
2.9316e-05
2.96547e-05
2.99954e-05
3.0338e-05
3.06825e-05
3.1029e-05
3.13775e-05
3.17279e-05
3.20802e-05
3.24345e-05
3.27907e-05
3.31489e-05
3.3509e-05
3.38711e-05
3.42351e-05
3.4601e-05
3.4969e-05
3.53388e-05
3.57106e-05
3.60844e-05
3.646e-05
3.68377e-05
3.72173e-05
3.75988e-05
3.79823e-05
3.83677e-05
3.87551e-05
3.91444e-05
3.95357e-05
3.99289e-05
4.0324e-05
4.07211e-05
4.11202e-05
4.15212e-05
4.19241e-05
4.2329e-05
4.27358e-05
4.31446e-05
4.35554e-05
4.3968e-05
4.43827e-05
4.47992e-05
4.52177e-05
4.56382e-05
4.60606e-05
4.6485e-05
4.69113e-05
4.73395e-05
4.77697e-05
4.82018e-05
4.86359e-05
4.9072e-05
4.95099e-05
4.99499e-05
5.03917e-05
5.08355e-05
5.12813e-05
5.1729e-05
5.21787e-05
5.26303e-05
5.30838e-05
5.35393e-05
5.39968e-05
5.44562e-05
5.49175e-05
5.53808e-05
5.5846e-05
5.63132e-05
5.67823e-05
5.72534e-05
5.77264e-05
5.82013e-05
5.86783e-05
5.91571e-05
5.96379e-05
6.01207e-05
6.06054e-05
6.1092e-05
6.15806e-05
6.20711e-05
6.25636e-05
6.3058e-05
6.35544e-05
6.40527e-05
6.4553e-05
6.50552e-05
6.55593e-05
6.60654e-05
6.65735e-05
6.70835e-05
6.75954e-05
6.81093e-05
6.86252e-05
6.91429e-05
6.96627e-05
7.01843e-05
7.0708e-05
7.12335e-05
7.17611e-05
7.22905e-05
7.28219e-05
7.33553e-05
7.38906e-05
7.44278e-05
7.4967e-05
7.55082e-05
7.60512e-05
7.65963e-05
7.71433e-05
7.76922e-05
7.82431e-05
7.87959e-05
7.93506e-05
7.99074e-05
8.0466e-05
8.10266e-05
8.15892e-05
8.21537e-05
8.27201e-05
8.32885e-05
8.38588e-05
8.44311e-05
8.50054e-05
8.55815e-05
8.61597e-05
8.67397e-05
8.73217e-05
8.79057e-05
8.84916e-05
8.90795e-05
8.96693e-05
9.0261e-05
9.08547e-05
9.14504e-05
9.2048e-05
9.26475e-05
9.3249e-05
9.38524e-05
9.44578e-05
9.50651e-05
9.56744e-05
9.62856e-05
9.68987e-05
9.75138e-05
9.81309e-05
9.87499e-05
9.93708e-05
9.99937e-05
0.000100619
0.000101245
0.000101874
0.000102505
0.000103137
0.000103772
0.000104408
0.000105047
0.000105687
0.00010633
0.000106974
0.00010762
0.000108268
0.000108919
0.000109571
0.000110225
0.000110881
0.000111539
0.000112199
0.00011286
0.000113524
0.00011419
0.000114857
0.000115527
0.000116199
0.000116872
0.000117548
0.000118225
0.000118904
0.000119586
0.000120269
0.000120954
0.000121641
0.00012233
0.000123021
0.000123714
0.000124409
0.000125106
0.000125805
0.000126506
0.000127208
0.000127913
0.000128619
0.000129328
0.000130038
0.000130751
0.000131465
0.000132182
0.0001329
0.00013362
0.000134342
0.000135066
0.000135792
0.00013652
0.00013725
0.000137982
0.000138716
0.000139452
0.00014019
0.000140929
0.000141671
0.000142415
0.00014316
0.000143908
0.000144657
0.000145408
0.000146162
0.000146917
0.000147674
0.000148433
0.000149194
0.000149957
0.000150722
0.000151489
0.000152258
0.000153029
0.000153802
0.000154576
0.000155353
0.000156132
0.000156912
0.000157695
0.000158479
0.000159266
0.000160054
0.000160844
0.000161636
0.000162431
0.000163227
0.000164025
0.000164825
0.000165627
0.000166431
0.000167237
0.000168044
0.000168854
0.000169666
0.00017048
0.000171295
0.000172113
0.000172932
0.000173754
0.000174577
0.000175402
0.00017623
0.000177059
0.00017789
0.000178723
0.000179558
0.000180395
0.000181234
0.000182075
0.000182918
0.000183763
0.000184609
0.000185458
0.000186309
0.000187161
0.000188016
0.000188872
0.000189731
0.000190591
0.000191453
0.000192318
0.000193184
0.000194052
0.000194922
0.000195794
0.000196668
0.000197544
0.000198422
0.000199302
0.000200183
0.000201067
0.000201953
0.00020284
0.00020373
0.000204622
0.000205515
0.00020641
0.000207308
0.000208207
0.000209108
0.000210011
0.000210917
0.000211824
0.000212733
0.000213644
0.000214557
0.000215471
0.000216388
0.000217307
0.000218228
0.00021915
0.000220075
0.000221002
0.00022193
0.00022286
0.000223793
0.000224727
0.000225663
0.000226602
0.000227542
0.000228484
0.000229428
0.000230374
0.000231322
0.000232272
0.000233224
0.000234178
0.000235133
0.000236091
0.000237051
0.000238012
0.000238976
0.000239941
0.000240909
0.000241878
0.000242849
0.000243823
0.000244798
0.000245775
0.000246754
0.000247735
0.000248718
0.000249703
0.00025069
0.000251679
0.000252669
0.000253662
0.000254657
0.000255653
0.000256652
0.000257653
0.000258655
0.000259659
0.000260666
0.000261674
0.000262684
0.000263697
0.000264711
0.000265727
0.000266745
0.000267765
0.000268787
0.000269811
0.000270836
0.000271864
0.000272894
0.000273925
0.000274959
0.000275995
0.000277032
0.000278072
0.000279113
0.000280156
0.000281202
0.000282249
0.000283298
0.000284349
0.000285402
0.000286457
0.000287514
0.000288573
0.000289634
0.000290697
0.000291761
0.000292828
0.000293897
0.000294967
0.00029604
0.000297114
0.000298191
0.000299269
0.000300349
0.000301432
0.000302516
0.000303602
0.00030469
0.00030578
0.000306872
0.000307966
0.000309062
0.00031016
0.00031126
0.000312361
0.000313465
0.000314571
0.000315678
0.000316788
0.000317899
0.000319013
0.000320128
0.000321245
0.000322365
0.000323486
0.000324609
0.000325734
0.000326861
0.00032799
0.000329121
0.000330254
0.000331389
0.000332525
0.000333664
0.000334805
0.000335947
0.000337092
0.000338238
0.000339387
0.000340537
0.00034169
0.000342844
0.000344
0.000345158
0.000346318
0.00034748
0.000348644
0.00034981
0.000350978
0.000352148
0.00035332
0.000354494
0.000355669
0.000356847
0.000358027
0.000359208
0.000360392
0.000361577
0.000362765
0.000363954
0.000365145
0.000366338
0.000367533
0.000368731
0.00036993
0.000371131
0.000372334
0.000373538
0.000374745
0.000375954
0.000377165
0.000378378
0.000379592
0.000380809
0.000382027
0.000383248
0.00038447
0.000385694
0.000386921
0.000388149
0.000389379
0.000390611
0.000391845
0.000393082
0.000394319
0.000395559
0.000396801
0.000398045
0.000399291
0.000400539
0.000401788
0.00040304
0.000404293
0.000405549
0.000406806
0.000408066
0.000409327
0.00041059
0.000411856
0.000413123
0.000414392
0.000415663
0.000416936
0.000418211
0.000419488
0.000420767
0.000422048
0.00042333
0.000424615
0.000425902
0.00042719
0.000428481
0.000429773
0.000431068
0.000432364
0.000433662
0.000434963
0.000436265
0.000437569
0.000438875
0.000440183
0.000441493
0.000442805
0.000444119
0.000445435
0.000446753
0.000448072
0.000449394
0.000450718
0.000452043
0.000453371
0.0004547
0.000456032
0.000457365
0.0004587
0.000460038
0.000461377
0.000462718
0.000464061
0.000465406
0.000466753
0.000468102
0.000469453
0.000470806
0.000472161
0.000473517
0.000474876
0.000476237
0.000477599
0.000478964
0.00048033
0.000481699
0.000483069
0.000484441
0.000485815
0.000487192
0.00048857
0.00048995
0.000491332
0.000492716
0.000494102
0.00049549
0.000496879
0.000498271
0.000499665
0.000501061
0.000502458
0.000503858
0.000505259
0.000506663
0.000508068
0.000509475
0.000510885
0.000512296
0.000513709
0.000515124
0.000516541
0.00051796
0.000519381
0.000520804
0.000522229
0.000523656
0.000525084
0.000526515
0.000527948
0.000529382
0.000530819
0.000532257
0.000533698
0.00053514
0.000536584
0.000538031
0.000539479
0.000540929
0.000542381
0.000543835
0.000545291
0.000546749
0.000548209
0.000549671
0.000551135
0.0005526
0.000554068
0.000555538
0.000557009
0.000558483
0.000559958
0.000561436
0.000562915
0.000564396
0.000565879
0.000567365
0.000568852
0.000570341
0.000571832
0.000573325
0.00057482
0.000576317
0.000577815
0.000579316
0.000580819
0.000582324
0.00058383
0.000585339
0.000586849
0.000588362
0.000589876
0.000591392
0.000592911
0.000594431
0.000595953
0.000597477
0.000599003
0.000600531
0.000602061
0.000603593
0.000605127
0.000606663
0.0006082
0.00060974
0.000611282
0.000612825
0.000614371
0.000615918
0.000617468
0.000619019
0.000620573
0.000622128
0.000623685
0.000625244
0.000626805
0.000628368
0.000629933
0.0006315
0.000633069
0.00063464
0.000636213
0.000637787
0.000639364
0.000640943
0.000642523
0.000644106
0.00064569
0.000647277
0.000648865
0.000650455
0.000652048
0.000653642
0.000655238
0.000656836
0.000658436
0.000660038
0.000661642
0.000663248
0.000664856
0.000666465
0.000668077
0.000669691
0.000671306
0.000672924
0.000674543
0.000676165
0.000677788
0.000679414
0.000681041
0.00068267
0.000684301
0.000685934
0.00068757
0.000689207
0.000690846
0.000692486
0.000694129
0.000695774
0.000697421
0.00069907
0.00070072
0.000702373
0.000704027
0.000705684
0.000707342
0.000709003
0.000710665
0.000712329
0.000713995
0.000715664
0.000717334
0.000719006
0.00072068
0.000722356
0.000724034
0.000725713
0.000727395
0.000729079
0.000730765
0.000732452
0.000734142
0.000735833
0.000737527
0.000739222
0.00074092
0.000742619
0.00074432
0.000746023
0.000747728
0.000749436
0.000751145
0.000752856
0.000754568
0.000756283
0.000758
0.000759719
0.00076144
0.000763162
0.000764887
0.000766614
0.000768342
0.000770072
0.000771805
0.000773539
0.000775275
0.000777014
0.000778754
0.000780496
0.00078224
0.000783986
0.000785734
0.000787484
0.000789236
0.00079099
0.000792745
0.000794503
0.000796263
0.000798024
0.000799788
0.000801553
0.000803321
0.00080509
0.000806862
0.000808635
0.00081041
0.000812187
0.000813966
0.000815747
0.00081753
0.000819315
0.000821102
0.000822891
0.000824682
0.000826475
0.000828269
0.000830066
0.000831864
0.000833665
0.000835467
0.000837272
0.000839078
0.000840887
0.000842697
0.000844509
0.000846323
0.000848139
0.000849957
0.000851777
0.000853599
0.000855423
0.000857249
0.000859077
0.000860906
0.000862738
0.000864572
0.000866407
0.000868245
0.000870084
0.000871926
0.000873769
0.000875614
0.000877462
0.000879311
0.000881162
0.000883015
0.00088487
0.000886727
0.000888586
0.000890447
0.000892309
0.000894174
0.000896041
0.00089791
0.00089978
0.000901653
0.000903527
0.000905404
0.000907282
0.000909162
0.000911045
0.000912929
0.000914815
0.000916703
0.000918593
0.000920485
0.000922379
0.000924275
0.000926173
0.000928073
0.000929974
0.000931878
0.000933784
0.000935691
0.000937601
0.000939512
0.000941426
0.000943341
0.000945258
0.000947178
0.000949099
0.000951022
0.000952947
0.000954874
0.000956803
0.000958734
0.000960667
0.000962602
0.000964539
0.000966477
0.000968418
0.000970361
0.000972305
0.000974252
0.0009762
0.000978151
0.000980103
0.000982057
0.000984014
0.000985972
0.000987932
0.000989894
0.000991858
0.000993824
0.000995792
0.000997762
0.000999734
0.00100171
0.00100368
0.00100566
0.00100764
0.00100962
0.00101161
0.00101359
0.00101558
0.00101757
0.00101956
0.00102155
0.00102355
0.00102554
0.00102754
0.00102954
0.00103155
0.00103355
0.00103556
0.00103757
0.00103958
0.00104159
0.00104361
0.00104562
0.00104764
0.00104966
0.00105168
0.00105371
0.00105573
0.00105776
0.00105979
0.00106183
0.00106386
0.0010659
0.00106793
0.00106997
0.00107202
0.00107406
0.0010761
0.00107815
0.0010802
0.00108225
0.00108431
0.00108636
0.00108842
0.00109048
0.00109254
0.0010946
0.00109667
0.00109874
0.00110081
0.00110288
0.00110495
0.00110703
0.0011091
0.00111118
0.00111326
0.00111534
0.00111743
0.00111952
0.0011216
0.0011237
0.00112579
0.00112788
0.00112998
0.00113208
0.00113418
0.00113628
0.00113838
0.00114049
0.0011426
0.00114471
0.00114682
0.00114893
0.00115105
0.00115317
0.00115529
0.00115741
0.00115953
0.00116166
0.00116379
0.00116591
0.00116805
0.00117018
0.00117232
0.00117445
0.00117659
0.00117873
0.00118088
0.00118302
0.00118517
0.00118732
0.00118947
0.00119162
0.00119378
0.00119593
0.00119809
0.00120025
0.00120241
0.00120458
0.00120674
0.00120891
0.00121108
0.00121326
0.00121543
0.00121761
0.00121978
0.00122196
0.00122415
0.00122633
0.00122852
0.0012307
0.00123289
0.00123509
0.00123728
0.00123948
0.00124167
0.00124387
0.00124607
0.00124828
0.00125048
0.00125269
0.0012549
0.00125711
0.00125932
0.00126154
0.00126376
0.00126598
0.0012682
0.00127042
0.00127264
0.00127487
0.0012771
0.00127933
0.00128156
0.0012838
0.00128603
0.00128827
0.00129051
0.00129276
0.001295
0.00129725
0.00129949
0.00130174
0.001304
0.00130625
0.00130851
0.00131076
0.00131302
0.00131529
0.00131755
0.00131982
0.00132208
0.00132435
0.00132662
0.0013289
0.00133117
0.00133345
0.00133573
0.00133801
0.0013403
0.00134258
0.00134487
0.00134716
0.00134945
0.00135174
0.00135404
0.00135633
0.00135863
0.00136093
0.00136323
0.00136554
0.00136785
0.00137015
0.00137247
0.00137478
0.00137709
0.00137941
0.00138173
0.00138405
0.00138637
0.00138869
0.00139102
0.00139335
0.00139568
0.00139801
0.00140034
0.00140268
0.00140502
0.00140736
0.0014097
0.00141204
0.00141439
0.00141673
0.00141908
0.00142144
0.00142379
0.00142614
0.0014285
0.00143086
0.00143322
0.00143558
0.00143795
0.00144032
0.00144269
0.00144506
0.00144743
0.0014498
0.00145218
0.00145456
0.00145694
0.00145932
0.00146171
0.00146409
0.00146648
0.00146887
0.00147126
0.00147366
0.00147605
0.00147845
0.00148085
0.00148325
0.00148566
0.00148806
0.00149047
0.00149288
0.00149529
0.00149771
0.00150012
0.00150254
0.00150496
0.00150738
0.0015098
0.00151223
0.00151466
0.00151709
0.00151952
0.00152195
0.00152439
0.00152682
0.00152926
0.0015317
0.00153415
0.00153659
0.00153904
0.00154149
0.00154394
0.00154639
0.00154884
0.0015513
0.00155376
0.00155622
0.00155868
0.00156115
0.00156361
0.00156608
0.00156855
0.00157102
0.0015735
0.00157597
0.00157845
0.00158093
0.00158341
0.0015859
0.00158838
0.00159087
0.00159336
0.00159585
0.00159834
0.00160084
0.00160334
0.00160584
0.00160834
0.00161084
0.00161335
0.00161585
0.00161836
0.00162087
0.00162339
0.0016259
0.00162842
0.00163094
0.00163346
0.00163598
0.0016385
0.00164103
0.00164356
0.00164609
0.00164862
0.00165116
0.00165369
0.00165623
0.00165877
0.00166131
0.00166386
0.0016664
0.00166895
0.0016715
0.00167405
0.00167661
0.00167916
0.00168172
0.00168428
0.00168684
0.00168941
0.00169197
0.00169454
0.00169711
0.00169968
0.00170225
0.00170483
0.0017074
0.00170998
0.00171257
0.00171515
0.00171773
0.00172032
0.00172291
0.0017255
0.00172809
0.00173069
0.00173328
0.00173588
0.00173848
0.00174109
0.00174369
0.0017463
0.0017489
0.00175151
0.00175413
0.00175674
0.00175936
0.00176198
0.0017646
0.00176722
0.00176984
0.00177247
0.00177509
0.00177772
0.00178036
0.00178299
0.00178563
0.00178826
0.0017909
0.00179354
0.00179619
0.00179883
0.00180148
0.00180413
0.00180678
0.00180943
0.00181209
0.00181475
0.0018174
0.00182007
0.00182273
0.00182539
0.00182806
0.00183073
0.0018334
0.00183607
0.00183875
0.00184142
0.0018441
0.00184678
0.00184946
0.00185215
0.00185483
0.00185752
0.00186021
0.0018629
0.0018656
0.00186829
0.00187099
0.00187369
0.00187639
0.0018791
0.0018818
0.00188451
0.00188722
0.00188993
0.00189264
0.00189536
0.00189808
0.0019008
0.00190352
0.00190624
0.00190897
0.00191169
0.00191442
0.00191715
0.00191989
0.00192262
0.00192536
0.0019281
0.00193084
0.00193358
0.00193632
0.00193907
0.00194182
0.00194457
0.00194732
0.00195008
0.00195283
0.00195559
0.00195835
0.00196111
0.00196388
0.00196664
0.00196941
0.00197218
0.00197495
0.00197773
0.0019805
0.00198328
0.00198606
0.00198884
0.00199162
0.00199441
0.0019972
0.00199999
0.00200278
0.00200557
0.00200837
0.00201116
0.00201396
0.00201676
0.00201957
0.00202237
0.00202518
0.00202799
0.0020308
0.00203361
0.00203643
0.00203924
0.00204206
0.00204488
0.0020477
0.00205053
0.00205335
0.00205618
0.00205901
0.00206184
0.00206468
0.00206752
0.00207035
0.00207319
0.00207604
0.00207888
0.00208172
0.00208457
0.00208742
0.00209027
0.00209313
0.00209598
0.00209884
0.0021017
0.00210456
0.00210742
0.00211029
0.00211316
0.00211603
0.0021189
0.00212177
0.00212465
0.00212752
0.0021304
0.00213328
0.00213616
0.00213905
0.00214194
0.00214482
0.00214772
0.00215061
0.0021535
0.0021564
0.0021593
0.0021622
0.0021651
0.002168
0.00217091
0.00217382
0.00217673
0.00217964
0.00218255
0.00218547
0.00218839
0.00219131
0.00219423
0.00219715
0.00220008
0.00220301
0.00220594
0.00220887
0.0022118
0.00221474
0.00221767
0.00222061
0.00222355
0.0022265
0.00222944
0.00223239
0.00223534
0.00223829
0.00224124
0.0022442
0.00224715
0.00225011
0.00225307
0.00225603
0.002259
0.00226197
0.00226493
0.0022679
0.00227088
0.00227385
0.00227683
0.00227981
0.00228279
0.00228577
0.00228875
0.00229174
0.00229473
0.00229772
0.00230071
0.0023037
0.0023067
0.00230969
0.00231269
0.0023157
0.0023187
0.0023217
0.00232471
0.00232772
0.00233073
0.00233375
0.00233676
0.00233978
0.0023428
0.00234582
0.00234884
0.00235187
0.00235489
0.00235792
0.00236095
0.00236398
0.00236702
0.00237006
0.00237309
0.00237613
0.00237918
0.00238222
0.00238527
0.00238832
0.00239137
0.00239442
0.00239747
0.00240053
0.00240359
0.00240665
0.00240971
0.00241277
0.00241584
0.0024189
0.00242197
0.00242505
0.00242812
0.0024312
0.00243427
0.00243735
0.00244043
0.00244352
0.0024466
0.00244969
0.00245278
0.00245587
0.00245896
0.00246206
0.00246515
0.00246825
0.00247135
0.00247446
0.00247756
0.00248067
0.00248378
0.00248689
0.00249
0.00249311
0.00249623
0.00249935
0.00250247
0.00250559
0.00250871
0.00251184
0.00251497
0.0025181
0.00252123
0.00252436
0.0025275
0.00253064
0.00253378
0.00253692
0.00254006
0.00254321
0.00254636
0.00254951
0.00255266
0.00255581
0.00255897
0.00256212
0.00256528
0.00256844
0.00257161
0.00257477
0.00257794
0.00258111
0.00258428
0.00258745
0.00259063
0.0025938
0.00259698
0.00260016
0.00260334
0.00260653
0.00260972
0.0026129
0.00261609
0.00261929
0.00262248
0.00262568
0.00262887
0.00263207
0.00263528
0.00263848
0.00264169
0.00264489
0.0026481
0.00265132
0.00265453
0.00265775
0.00266096
0.00266418
0.0026674
0.00267063
0.00267385
0.00267708
0.00268031
0.00268354
0.00268677
0.00269001
0.00269325
0.00269648
0.00269973
0.00270297
0.00270621
0.00270946
0.00271271
0.00271596
0.00271921
0.00272247
0.00272572
0.00272898
0.00273224
0.0027355
0.00273877
0.00274204
0.0027453
0.00274857
0.00275185
0.00275512
0.0027584
0.00276167
0.00276495
0.00276824
0.00277152
0.0027748
0.00277809
0.00278138
0.00278467
0.00278797
0.00279126
0.00279456
0.00279786
0.00280116
0.00280446
0.00280777
0.00281108
0.00281439
0.0028177
0.00282101
0.00282432
0.00282764
0.00283096
0.00283428
0.0028376
0.00284093
0.00284425
0.00284758
0.00285091
0.00285425
0.00285758
0.00286092
0.00286425
0.00286759
0.00287094
0.00287428
0.00287763
0.00288098
0.00288433
0.00288768
0.00289103
0.00289439
0.00289774
0.0029011
0.00290447
0.00290783
0.00291119
0.00291456
0.00291793
0.0029213
0.00292468
0.00292805
0.00293143
0.00293481
0.00293819
0.00294157
0.00294496
0.00294834
0.00295173
0.00295512
0.00295852
0.00296191
0.00296531
0.00296871
0.00297211
0.00297551
0.00297891
0.00298232
0.00298573
0.00298914
0.00299255
0.00299597
0.00299938
0.0030028
0.00300622
0.00300964
0.00301307
0.00301649
0.00301992
0.00302335
0.00302678
0.00303021
0.00303365
0.00303709
0.00304053
0.00304397
0.00304741
0.00305086
0.0030543
0.00305775
0.0030612
0.00306466
0.00306811
0.00307157
0.00307503
0.00307849
0.00308195
0.00308542
0.00308888
0.00309235
0.00309582
0.0030993
0.00310277
0.00310625
0.00310972
0.00311321
0.00311669
0.00312017
0.00312366
0.00312715
0.00313064
0.00313413
0.00313762
0.00314112
0.00314462
0.00314812
0.00315162
0.00315512
0.00315863
0.00316213
0.00316564
0.00316916
0.00317267
0.00317618
0.0031797
0.00318322
0.00318674
0.00319027
0.00319379
0.00319732
0.00320085
0.00320438
0.00320791
0.00321145
0.00321498
0.00321852
0.00322206
0.0032256
0.00322915
0.0032327
0.00323624
0.00323979
0.00324335
0.0032469
0.00325046
0.00325402
0.00325758
0.00326114
0.0032647
0.00326827
0.00327184
0.00327541
0.00327898
0.00328255
0.00328613
0.00328971
0.00329328
0.00329687
0.00330045
0.00330404
0.00330762
0.00331121
0.0033148
0.0033184
0.00332199
0.00332559
0.00332919
0.00333279
0.00333639
0.00334
0.0033436
0.00334721
0.00335082
0.00335444
0.00335805
0.00336167
0.00336529
0.00336891
0.00337253
0.00337615
0.00337978
0.00338341
0.00338704
0.00339067
0.0033943
0.00339794
0.00340158
0.00340522
0.00340886
0.0034125
0.00341615
0.0034198
0.00342345
0.0034271
0.00343075
0.00343441
0.00343807
0.00344173
0.00344539
0.00344905
0.00345272
0.00345638
0.00346005
0.00346372
0.0034674
0.00347107
0.00347475
0.00347843
0.00348211
0.00348579
0.00348948
0.00349316
0.00349685
0.00350054
0.00350423
0.00350793
0.00351162
0.00351532
0.00351902
0.00352273
0.00352643
0.00353014
0.00353384
0.00353755
0.00354127
0.00354498
0.0035487
0.00355241
0.00355613
0.00355986
0.00356358
0.0035673
0.00357103
0.00357476
0.00357849
0.00358223
0.00358596
0.0035897
0.00359344
0.00359718
0.00360092
0.00360467
0.00360841
0.00361216
0.00361591
0.00361967
0.00362342
0.00362718
0.00363094
0.0036347
0.00363846
0.00364223
0.00364599
0.00364976
0.00365353
0.0036573
0.00366108
0.00366485
0.00366863
0.00367241
0.00367619
0.00367998
0.00368376
0.00368755
0.00369134
0.00369513
0.00369893
0.00370272
0.00370652
0.00371032
0.00371412
0.00371793
0.00372173
0.00372554
0.00372935
0.00373316
0.00373697
0.00374079
0.0037446
0.00374842
0.00375224
0.00375607
0.00375989
0.00376372
0.00376755
0.00377138
0.00377521
0.00377905
0.00378288
0.00378672
0.00379056
0.0037944
0.00379825
0.00380209
0.00380594
0.00380979
0.00381365
0.0038175
0.00382136
0.00382521
0.00382907
0.00383293
0.0038368
0.00384066
0.00384453
0.0038484
0.00385227
0.00385615
0.00386002
0.0038639
0.00386778
0.00387166
0.00387554
0.00387943
0.00388332
0.00388721
0.0038911
0.00389499
0.00389888
0.00390278
0.00390668
0.00391058
0.00391448
0.00391839
0.0039223
0.0039262
0.00393011
0.00393403
0.00393794
0.00394186
0.00394578
0.0039497
0.00395362
0.00395754
0.00396147
0.0039654
0.00396933
0.00397326
0.00397719
0.00398113
0.00398507
0.00398901
0.00399295
0.00399689
0.00400084
0.00400478
0.00400873
0.00401269
0.00401664
0.00402059
0.00402455
0.00402851
0.00403247
0.00403643
0.0040404
0.00404437
0.00404834
0.00405231
0.00405628
0.00406025
0.00406423
0.00406821
0.00407219
0.00407617
0.00408016
0.00408414
0.00408813
0.00409212
0.00409611
0.00410011
0.00410411
0.0041081
0.0041121
0.00411611
0.00412011
0.00412412
0.00412812
0.00413213
0.00413614
0.00414016
0.00414417
0.00414819
0.00415221
0.00415623
0.00416026
0.00416428
0.00416831
0.00417234
0.00417637
0.0041804
0.00418444
0.00418847
0.00419251
0.00419655
0.0042006
0.00420464
0.00420869
0.00421274
0.00421679
0.00422084
0.0042249
0.00422895
0.00423301
0.00423707
0.00424113
0.0042452
0.00424926
0.00425333
0.0042574
0.00426147
0.00426555
0.00426962
0.0042737
0.00427778
0.00428186
0.00428595
0.00429003
0.00429412
0.00429821
0.0043023
0.0043064
0.00431049
0.00431459
0.00431869
0.00432279
0.00432689
0.004331
0.00433511
0.00433921
0.00434333
0.00434744
0.00435155
0.00435567
0.00435979
0.00436391
0.00436803
0.00437216
0.00437628
0.00438041
0.00438454
0.00438867
0.00439281
0.00439695
0.00440108
0.00440522
0.00440937
0.00441351
0.00441766
0.0044218
0.00442595
0.00443011
0.00443426
0.00443842
0.00444257
0.00444673
0.0044509
0.00445506
0.00445922
0.00446339
0.00446756
0.00447173
0.00447591
0.00448008
0.00448426
0.00448844
0.00449262
0.0044968
0.00450099
0.00450517
0.00450936
0.00451355
0.00451775
0.00452194
0.00452614
0.00453034
0.00453454
0.00453874
0.00454294
0.00454715
0.00455136
0.00455557
0.00455978
0.004564
0.00456821
0.00457243
0.00457665
0.00458087
0.0045851
0.00458932
0.00459355
0.00459778
0.00460201
0.00460624
0.00461048
0.00461472
0.00461896
0.0046232
0.00462744
0.00463169
0.00463593
0.00464018
0.00464443
0.00464869
0.00465294
0.0046572
0.00466146
0.00466572
0.00466998
0.00467425
0.00467851
0.00468278
0.00468705
0.00469133
0.0046956
0.00469988
0.00470416
0.00470844
0.00471272
0.004717
0.00472129
0.00472558
0.00472987
0.00473416
0.00473845
0.00474275
0.00474705
0.00475135
0.00475565
0.00475995
0.00476426
0.00476857
0.00477288
0.00477719
0.0047815
0.00478582
0.00479013
0.00479445
0.00479877
0.0048031
0.00480742
0.00481175
0.00481608
0.00482041
0.00482474
0.00482908
0.00483341
0.00483775
0.00484209
0.00484644
0.00485078
0.00485513
0.00485948
0.00486383
0.00486818
0.00487253
0.00487689
0.00488125
0.00488561
0.00488997
0.00489433
0.0048987
0.00490307
0.00490744
0.00491181
0.00491618
0.00492056
0.00492494
0.00492932
0.0049337
0.00493808
0.00494247
0.00494685
0.00495124
0.00495563
0.00496003
0.00496442
0.00496882
0.00497322
0.00497762
0.00498202
0.00498643
0.00499084
0.00499524
0.00499965
0.00500407
0.00500848
0.0050129
0.00501732
0.00502174
0.00502616
0.00503059
0.00503501
0.00503944
0.00504387
0.0050483
0.00505274
0.00505717
0.00506161
0.00506605
0.00507049
0.00507494
0.00507938
0.00508383
0.00508828
0.00509273
0.00509718
0.00510164
0.0051061
0.00511056
0.00511502
0.00511948
0.00512395
0.00512841
0.00513288
0.00513735
0.00514183
0.0051463
0.00515078
0.00515526
0.00515974
0.00516422
0.00516871
0.00517319
0.00517768
0.00518217
0.00518667
0.00519116
0.00519566
0.00520016
0.00520466
0.00520916
0.00521366
0.00521817
0.00522268
0.00522719
0.0052317
0.00523621
0.00524073
0.00524525
0.00524977
0.00525429
0.00525881
0.00526334
0.00526786
0.00527239
0.00527693
0.00528146
0.00528599
0.00529053
0.00529507
0.00529961
0.00530416
0.0053087
0.00531325
0.0053178
0.00532235
0.0053269
0.00533145
0.00533601
0.00534057
0.00534513
0.00534969
0.00535426
0.00535882
0.00536339
0.00536796
0.00537254
0.00537711
0.00538169
0.00538626
0.00539084
0.00539543
0.00540001
0.0054046
0.00540918
0.00541377
0.00541837
0.00542296
0.00542756
0.00543215
0.00543675
0.00544135
0.00544596
0.00545056
0.00545517
0.00545978
0.00546439
0.00546901
0.00547362
0.00547824
0.00548286
0.00548748
0.0054921
0.00549673
0.00550135
0.00550598
0.00551061
0.00551524
0.00551988
0.00552452
0.00552915
0.00553379
0.00553844
0.00554308
0.00554773
0.00555238
0.00555703
0.00556168
0.00556633
0.00557099
0.00557565
0.00558031
0.00558497
0.00558963
0.0055943
0.00559897
0.00560364
0.00560831
0.00561298
0.00561766
0.00562233
0.00562701
0.00563169
0.00563638
0.00564106
0.00564575
0.00565044
0.00565513
0.00565982
0.00566452
0.00566922
0.00567391
0.00567861
0.00568332
0.00568802
0.00569273
0.00569744
0.00570215
0.00570686
0.00571158
0.00571629
0.00572101
0.00572573
0.00573045
0.00573518
0.0057399
0.00574463
0.00574936
0.00575409
0.00575883
0.00576356
0.0057683
0.00577304
0.00577778
0.00578253
0.00578727
0.00579202
0.00579677
0.00580152
0.00580627
0.00581103
0.00581579
0.00582054
0.00582531
0.00583007
0.00583483
0.0058396
0.00584437
0.00584914
0.00585391
0.00585869
0.00586347
0.00586824
0.00587302
0.00587781
0.00588259
0.00588738
0.00589217
0.00589696
0.00590175
0.00590654
0.00591134
0.00591614
0.00592094
0.00592574
0.00593054
0.00593535
0.00594016
0.00594497
0.00594978
0.00595459
0.00595941
0.00596423
0.00596905
0.00597387
0.00597869
0.00598352
0.00598834
0.00599317
0.005998
0.00600284
0.00600767
0.00601251
0.00601735
0.00602219
0.00602703
0.00603188
0.00603672
0.00604157
0.00604642
0.00605128
0.00605613
0.00606099
0.00606585
0.00607071
0.00607557
0.00608043
0.0060853
0.00609017
0.00609504
0.00609991
0.00610478
0.00610966
0.00611454
0.00611942
0.0061243
0.00612918
0.00613407
0.00613896
0.00614385
0.00614874
0.00615363
0.00615853
0.00616342
0.00616832
0.00617322
0.00617813
0.00618303
0.00618794
0.00619285
0.00619776
0.00620267
0.00620759
0.00621251
0.00621742
0.00622234
0.00622727
0.00623219
0.00623712
0.00624205
0.00624698
0.00625191
0.00625684
0.00626178
0.00626672
0.00627166
0.0062766
0.00628155
0.00628649
0.00629144
0.00629639
0.00630134
0.0063063
0.00631125
0.00631621
0.00632117
0.00632613
0.00633109
0.00633606
0.00634103
0.006346
0.00635097
0.00635594
0.00636092
0.00636589
0.00637087
0.00637585
0.00638084
0.00638582
0.00639081
0.0063958
0.00640079
0.00640578
0.00641078
0.00641577
0.00642077
0.00642577
0.00643078
0.00643578
0.00644079
0.00644579
0.0064508
0.00645582
0.00646083
0.00646585
0.00647087
0.00647589