/*--------------------------------*- C++ -*----------------------------------*\
| =========                 |                                                 |
| \\      /  F ield         | OpenFOAM: The Open Source CFD Toolbox           |
|  \\    /   O peration     | Version:  2206                                  |
|   \\  /    A nd           | Website:  www.openfoam.com                      |
|    \\/     M anipulation  |                                                 |
\*---------------------------------------------------------------------------*/
FoamFile
{
    version     2.0;
    format      ascii;
    arch        "LSB;label=32;scalar=64";
    class       surfaceScalarField;
    location    "70";
    object      phi;
}
// * * * * * * * * * * * * * * * * * * * * * * * * * * * * * * * * * * * * * //

dimensions      [0 3 -1 0 0 0 0];

oriented        oriented;

internalField   nonuniform List<scalar> 
94990
(
-1.35168e-25
7.21285e-25
-1.01285e-24
1.1277e-24
-2.17769e-24
7.00497e-25
-3.43539e-24
1.52102e-24
-5.41751e-24
1.56466e-24
-7.51195e-24
2.35595e-24
-1.02646e-23
2.45692e-24
-1.31083e-23
3.06961e-24
-1.66473e-23
3.31356e-24
-2.03622e-23
3.91082e-24
-2.46361e-23
4.09036e-24
-2.91489e-23
4.68349e-24
-3.42471e-23
4.94392e-24
-3.95604e-23
5.4624e-24
-4.54393e-23
5.74681e-24
-5.15684e-23
6.2601e-24
-5.82398e-23
6.55714e-24
-6.51782e-23
7.05439e-24
-7.26426e-23
7.36447e-24
-8.03894e-23
7.85033e-24
-8.86453e-23
8.16778e-24
-9.72025e-23
8.65022e-24
-1.06253e-22
8.9718e-24
-1.15616e-22
9.44721e-24
-1.25462e-22
9.77569e-24
-1.35631e-22
1.0246e-23
-1.46274e-22
1.05789e-23
-1.57248e-22
1.10438e-23
-1.68689e-22
1.1383e-23
-1.80466e-22
1.18416e-23
-1.92705e-22
1.21864e-23
-2.05286e-22
1.26401e-23
-2.18324e-22
1.29891e-23
-2.31707e-22
1.34391e-23
-2.45544e-22
1.37916e-23
-2.59731e-22
1.42382e-23
-2.74366e-22
1.45938e-23
-2.89356e-22
1.50375e-23
-3.04791e-22
1.5396e-23
-3.20582e-22
1.58369e-23
-3.36817e-22
1.6198e-23
-3.53411e-22
1.66364e-23
-3.70445e-22
1.69998e-23
-3.87841e-22
1.7436e-23
-4.05674e-22
1.78016e-23
-4.23872e-22
1.82357e-23
-4.42506e-22
1.86033e-23
-4.61505e-22
1.90355e-23
-4.80939e-22
1.94048e-23
-5.0074e-22
1.98354e-23
-5.20973e-22
2.02064e-23
-5.41577e-22
2.06354e-23
-5.6261e-22
2.10078e-23
-5.84015e-22
2.14354e-23
-6.05848e-22
2.18092e-23
-6.28054e-22
2.22354e-23
-6.50688e-22
2.26105e-23
-6.73695e-22
2.30355e-23
-6.97129e-22
2.34118e-23
-7.20938e-22
2.38357e-23
-7.45172e-22
2.42131e-23
-7.69782e-22
2.46359e-23
-7.94816e-22
2.50143e-23
-8.20228e-22
2.54361e-23
-8.46062e-22
2.58155e-23
-8.72275e-22
2.62364e-23
-8.9891e-22
2.66167e-23
-9.25924e-22
2.70367e-23
-9.53359e-22
2.74178e-23
-9.81175e-22
2.7837e-23
-1.00941e-21
2.82189e-23
-1.03803e-21
2.86373e-23
-1.06706e-21
2.902e-23
-1.09648e-21
2.94377e-23
-1.12632e-21
2.9821e-23
-1.15654e-21
3.02381e-23
-1.18717e-21
3.06221e-23
-1.21819e-21
3.10385e-23
-1.24963e-21
3.14231e-23
-1.28145e-21
3.18389e-23
-1.31369e-21
3.22241e-23
-1.34631e-21
3.26394e-23
-1.37935e-21
3.30251e-23
-1.41277e-21
3.34399e-23
-1.44661e-21
3.38261e-23
-1.48083e-21
3.42403e-23
-1.51547e-21
3.46271e-23
-1.5505e-21
3.50408e-23
-1.58594e-21
3.54281e-23
-1.62176e-21
3.58413e-23
-1.658e-21
3.6229e-23
-1.69463e-21
3.66419e-23
-1.73167e-21
3.703e-23
-1.7691e-21
3.74424e-23
-1.80694e-21
3.78309e-23
-1.84517e-21
3.82429e-23
-1.88381e-21
3.86318e-23
-1.92284e-21
3.90435e-23
-1.96229e-21
3.94327e-23
-2.00212e-21
3.9844e-23
-2.04236e-21
4.02336e-23
-2.08299e-21
4.06446e-23
-2.12403e-21
4.10345e-23
-2.16547e-21
4.14452e-23
-2.20731e-21
4.18354e-23
-2.24955e-21
4.22458e-23
-2.29219e-21
4.26363e-23
-2.33523e-21
4.30464e-23
-2.37867e-21
4.34372e-23
-2.42251e-21
4.38469e-23
-2.46675e-21
4.42381e-23
-2.51139e-21
4.46476e-23
-2.55644e-21
4.5039e-23
-2.60187e-21
4.54482e-23
-2.64772e-21
4.58398e-23
-2.69396e-21
4.62488e-23
-2.74061e-21
4.66407e-23
-2.78765e-21
4.70494e-23
-2.83509e-21
4.74416e-23
-2.88293e-21
4.785e-23
-2.93118e-21
4.82424e-23
-2.97982e-21
4.86507e-23
-3.02887e-21
4.90433e-23
-3.07832e-21
4.94513e-23
-3.12817e-21
4.98441e-23
-3.17841e-21
5.02519e-23
-3.22906e-21
5.0645e-23
-3.2801e-21
5.10526e-23
-3.33156e-21
5.14458e-23
-3.3834e-21
5.18532e-23
-3.43565e-21
5.22467e-23
-3.4883e-21
5.26539e-23
-3.54135e-21
5.30475e-23
-3.5948e-21
5.34545e-23
-3.64865e-21
5.38484e-23
-3.7029e-21
5.42552e-23
-3.75755e-21
5.46492e-23
-3.8126e-21
5.50558e-23
-3.86806e-21
5.545e-23
-3.9239e-21
5.58565e-23
-3.98016e-21
5.62509e-23
-4.03681e-21
5.66572e-23
-4.09387e-21
5.70517e-23
-4.15132e-21
5.74578e-23
-4.20917e-21
5.78525e-23
-4.26743e-21
5.82585e-23
-4.32608e-21
5.86533e-23
-4.38514e-21
5.90592e-23
-4.44459e-21
5.94542e-23
-4.50445e-21
5.98599e-23
-4.56471e-21
6.0255e-23
-4.62536e-21
6.06605e-23
-4.68642e-21
6.10558e-23
-4.74787e-21
6.14612e-23
-4.80973e-21
6.18566e-23
-4.87199e-21
6.22619e-23
-4.93465e-21
6.26574e-23
-4.99771e-21
6.30626e-23
-5.06117e-21
6.34582e-23
-5.12503e-21
6.38633e-23
-5.18929e-21
6.42591e-23
-5.25395e-21
6.4664e-23
-5.31901e-21
6.50599e-23
-5.38447e-21
6.54647e-23
-5.45033e-21
6.58607e-23
-5.51659e-21
6.62654e-23
-5.58326e-21
6.66615e-23
-5.65032e-21
6.70661e-23
-5.71778e-21
6.74623e-23
-5.78564e-21
6.78667e-23
-5.85391e-21
6.82631e-23
-5.92257e-21
6.86674e-23
-5.99164e-21
6.90639e-23
-6.0611e-21
6.94681e-23
-6.13097e-21
6.98647e-23
-6.20123e-21
7.02688e-23
-6.2719e-21
7.06655e-23
-6.34296e-21
7.10695e-23
-6.41443e-21
7.14663e-23
-6.4863e-21
7.18703e-23
-6.55857e-21
7.22671e-23
-6.63123e-21
7.2671e-23
-6.7043e-21
7.30679e-23
-6.77777e-21
7.34717e-23
-6.85164e-21
7.38687e-23
-6.92591e-21
7.42724e-23
-7.00058e-21
7.46695e-23
-7.07565e-21
7.50731e-23
-7.15112e-21
7.54703e-23
-7.22699e-21
7.58738e-23
-7.30326e-21
7.62711e-23
-7.37993e-21
7.66745e-23
-7.45701e-21
7.70719e-23
-7.53448e-21
7.74752e-23
-7.61235e-21
7.78727e-23
-7.69063e-21
7.82759e-23
-7.7693e-21
7.86735e-23
-7.84837e-21
7.90766e-23
-7.92785e-21
7.94743e-23
-8.00772e-21
7.98774e-23
-8.088e-21
8.02751e-23
-8.16867e-21
8.06781e-23
-8.24975e-21
8.10759e-23
-8.33122e-21
8.14788e-23
-8.4131e-21
8.18767e-23
-8.49538e-21
8.22795e-23
-8.57806e-21
8.26775e-23
-8.66113e-21
8.30802e-23
-8.74461e-21
8.34783e-23
-8.82849e-21
8.38809e-23
-8.91277e-21
8.4279e-23
-8.99745e-21
8.46817e-23
-9.08253e-21
8.50798e-23
-9.16801e-21
8.54824e-23
-9.25389e-21
8.58806e-23
-9.34017e-21
8.62831e-23
-9.42685e-21
8.66814e-23
-9.51393e-21
8.70838e-23
-9.60141e-21
8.74822e-23
-9.6893e-21
8.78845e-23
-9.77758e-21
8.8283e-23
-9.86626e-21
8.86853e-23
-9.95535e-21
8.90838e-23
-1.00448e-20
8.9486e-23
-1.01347e-20
8.98846e-23
-1.0225e-20
9.02867e-23
-1.03157e-20
9.06854e-23
-1.04068e-20
9.10874e-23
-1.04983e-20
9.14861e-23
-1.05901e-20
9.18882e-23
-1.06824e-20
9.22869e-23
-1.07751e-20
9.26889e-23
-1.08682e-20
9.30877e-23
-1.09617e-20
9.34896e-23
-1.10556e-20
9.38885e-23
-1.11499e-20
9.42903e-23
-1.12446e-20
9.46893e-23
-1.13396e-20
9.50911e-23
-1.14351e-20
9.54901e-23
-1.1531e-20
9.58918e-23
-1.16273e-20
9.62909e-23
-1.1724e-20
9.66925e-23
-1.18211e-20
9.70916e-23
-1.19186e-20
9.74932e-23
-1.20165e-20
9.78924e-23
-1.21148e-20
9.8294e-23
-1.22135e-20
9.86932e-23
-1.23126e-20
9.90947e-23
-1.2412e-20
9.9494e-23
-1.25119e-20
9.98954e-23
-1.26122e-20
1.00295e-22
-1.27129e-20
1.00696e-22
-1.2814e-20
1.01096e-22
-1.29155e-20
1.01497e-22
-1.30174e-20
1.01896e-22
-1.31197e-20
1.02298e-22
-1.32224e-20
1.02697e-22
-1.33255e-20
1.03098e-22
-1.3429e-20
1.03498e-22
-1.35329e-20
1.03899e-22
-1.36372e-20
1.04299e-22
-1.37419e-20
1.047e-22
-1.3847e-20
1.05099e-22
-1.39525e-20
1.05501e-22
-1.40584e-20
1.059e-22
-1.41647e-20
1.06301e-22
-1.42714e-20
1.06701e-22
-1.43785e-20
1.07102e-22
-1.4486e-20
1.07502e-22
-1.45939e-20
1.07903e-22
-1.47022e-20
1.08303e-22
-1.48109e-20
1.08703e-22
-1.492e-20
1.09103e-22
-1.50295e-20
1.09504e-22
-1.51394e-20
1.09904e-22
-1.52497e-20
1.10305e-22
-1.53604e-20
1.10705e-22
-1.54715e-20
1.11106e-22
-1.5583e-20
1.11506e-22
-1.56949e-20
1.11906e-22
-1.58072e-20
1.12306e-22
-1.59199e-20
1.12707e-22
-1.6033e-20
1.13107e-22
-1.61465e-20
1.13508e-22
-1.62605e-20
1.13908e-22
-1.63748e-20
1.14309e-22
-1.64895e-20
1.14709e-22
-1.66046e-20
1.15109e-22
-1.67201e-20
1.1551e-22
-1.6836e-20
1.1591e-22
-1.69523e-20
1.1631e-22
-1.7069e-20
1.16711e-22
-1.71861e-20
1.17111e-22
-1.73036e-20
1.17512e-22
-1.74215e-20
1.17912e-22
-1.75399e-20
1.18312e-22
-1.76586e-20
1.18713e-22
-1.77777e-20
1.19113e-22
-1.78972e-20
1.19513e-22
-1.80171e-20
1.19914e-22
-1.81374e-20
1.20314e-22
-1.82581e-20
1.20714e-22
-1.83792e-20
1.21115e-22
-1.85008e-20
1.21515e-22
-1.86227e-20
1.21916e-22
-1.8745e-20
1.22316e-22
-1.88677e-20
1.22717e-22
-1.89908e-20
1.23117e-22
-1.91143e-20
1.23517e-22
-1.92382e-20
1.23917e-22
-1.93626e-20
1.24318e-22
-1.94873e-20
1.24718e-22
-1.96124e-20
1.25119e-22
-1.97379e-20
1.25519e-22
-1.98638e-20
1.2592e-22
-1.99901e-20
1.2632e-22
-2.01169e-20
1.2672e-22
-2.0244e-20
1.2712e-22
-2.03715e-20
1.27521e-22
-2.04994e-20
1.27921e-22
-2.06277e-20
1.28322e-22
-2.07565e-20
1.28722e-22
-2.08856e-20
1.29123e-22
-2.10151e-20
1.29523e-22
-2.1145e-20
1.29924e-22
-2.12754e-20
1.30323e-22
-2.14061e-20
1.30724e-22
-2.15372e-20
1.31124e-22
-2.16687e-20
1.31525e-22
-2.18006e-20
1.31925e-22
-2.1933e-20
1.32326e-22
-2.20657e-20
1.32726e-22
-2.21988e-20
1.33127e-22
-2.23323e-20
1.33526e-22
-2.24663e-20
1.33927e-22
-2.26006e-20
1.34327e-22
-2.27353e-20
1.34728e-22
-2.28704e-20
1.35128e-22
-2.3006e-20
1.35529e-22
-2.31419e-20
1.35929e-22
-2.32782e-20
1.3633e-22
-2.3415e-20
1.36729e-22
-2.35521e-20
1.37131e-22
-2.36896e-20
1.3753e-22
-2.38275e-20
1.37931e-22
-2.39659e-20
1.38331e-22
-2.41046e-20
1.38732e-22
-2.42437e-20
1.39131e-22
-2.43833e-20
1.39533e-22
-2.45232e-20
1.39932e-22
-2.46635e-20
1.40334e-22
-2.48043e-20
1.40733e-22
-2.49454e-20
1.41134e-22
-2.50869e-20
1.41534e-22
-2.52289e-20
1.41935e-22
-2.53712e-20
1.42334e-22
-2.55139e-20
1.42736e-22
-2.56571e-20
1.43135e-22
-2.58006e-20
1.43537e-22
-2.59445e-20
1.43936e-22
-2.60889e-20
1.44338e-22
-2.62336e-20
1.44737e-22
-2.63787e-20
1.45138e-22
-2.65243e-20
1.45537e-22
-2.66702e-20
1.45939e-22
-2.68165e-20
1.46338e-22
-2.69633e-20
1.4674e-22
-2.71104e-20
1.47139e-22
-2.7258e-20
1.47541e-22
-2.74059e-20
1.4794e-22
-2.75542e-20
1.48341e-22
-2.7703e-20
1.4874e-22
-2.78521e-20
1.49142e-22
-2.80017e-20
1.49541e-22
-2.81516e-20
1.49943e-22
-2.83019e-20
1.50342e-22
-2.84527e-20
1.50744e-22
-2.86038e-20
1.51143e-22
-2.87554e-20
1.51545e-22
-2.89073e-20
1.51943e-22
-2.90597e-20
1.52345e-22
-2.92124e-20
1.52744e-22
-2.93655e-20
1.53146e-22
-2.95191e-20
1.53545e-22
-2.9673e-20
1.53947e-22
-2.98274e-20
1.54346e-22
-2.99821e-20
1.54748e-22
-3.01373e-20
1.55146e-22
-3.02928e-20
1.55548e-22
-3.04488e-20
1.55947e-22
-3.06051e-20
1.56349e-22
-3.07618e-20
1.56748e-22
-3.0919e-20
1.5715e-22
-3.10765e-20
1.57548e-22
-3.12345e-20
1.57951e-22
-3.13928e-20
1.58349e-22
-3.15516e-20
1.58752e-22
-3.17107e-20
1.5915e-22
-3.18703e-20
1.59552e-22
-3.20302e-20
1.59951e-22
-3.21906e-20
1.60353e-22
-3.23513e-20
1.60751e-22
-3.25125e-20
1.61154e-22
-3.2674e-20
1.61552e-22
-3.2836e-20
1.61955e-22
-3.29983e-20
1.62353e-22
-3.31611e-20
1.62755e-22
-3.33243e-20
1.63154e-22
-3.34878e-20
1.63556e-22
-3.36518e-20
1.63954e-22
-3.38161e-20
1.64357e-22
-3.39809e-20
1.64755e-22
-3.4146e-20
1.65158e-22
-3.43116e-20
1.65556e-22
-3.44775e-20
1.65958e-22
-3.46439e-20
1.66357e-22
-3.48106e-20
1.66759e-22
-3.49778e-20
1.67157e-22
-3.51454e-20
1.6756e-22
-3.53133e-20
1.67958e-22
-3.54817e-20
1.68361e-22
-3.56504e-20
1.68759e-22
-3.58196e-20
1.69162e-22
-3.59891e-20
1.6956e-22
-3.61591e-20
1.69962e-22
-3.63295e-20
1.7036e-22
-3.65002e-20
1.70763e-22
-3.66714e-20
1.71161e-22
-3.68429e-20
1.71564e-22
-3.70149e-20
1.71962e-22
-3.71873e-20
1.72365e-22
-3.736e-20
1.72763e-22
-3.75332e-20
1.73165e-22
-3.77068e-20
1.73563e-22
-3.78807e-20
1.73966e-22
-3.80551e-20
1.74364e-22
-3.82299e-20
1.74767e-22
-3.8405e-20
1.75165e-22
-3.85806e-20
1.75568e-22
-3.87565e-20
1.75966e-22
-3.89329e-20
1.76369e-22
-3.91097e-20
1.76766e-22
-3.92868e-20
1.77169e-22
-3.94644e-20
1.77567e-22
-3.96424e-20
1.7797e-22
-3.98207e-20
1.78368e-22
-3.99995e-20
1.78771e-22
-4.01787e-20
1.79169e-22
-4.03582e-20
1.79572e-22
-4.05382e-20
1.79969e-22
-4.07186e-20
1.80372e-22
-4.08994e-20
1.8077e-22
-4.10805e-20
1.81173e-22
-4.12621e-20
1.81571e-22
-4.14441e-20
1.81974e-22
-4.16264e-20
1.82371e-22
-4.18092e-20
1.82775e-22
-4.19924e-20
1.83172e-22
-4.2176e-20
1.83576e-22
-4.23599e-20
1.83973e-22
-4.25443e-20
1.84376e-22
-4.27291e-20
1.84774e-22
-4.29142e-20
1.85177e-22
-4.30998e-20
1.85574e-22
-4.32858e-20
1.85978e-22
-4.34722e-20
1.86375e-22
-4.36589e-20
1.86779e-22
-4.38461e-20
1.87176e-22
-4.40337e-20
1.87579e-22
-4.42217e-20
1.87977e-22
-4.441e-20
1.8838e-22
-4.45988e-20
1.88777e-22
-4.4788e-20
1.89181e-22
-4.49776e-20
1.89578e-22
-4.51676e-20
1.89982e-22
-4.53579e-20
1.90379e-22
-4.55487e-20
1.90783e-22
-4.57399e-20
1.9118e-22
-4.59315e-20
1.91583e-22
-4.61235e-20
1.9198e-22
-4.63158e-20
1.92384e-22
-4.65086e-20
1.92781e-22
-4.67018e-20
1.93185e-22
-4.68954e-20
1.93582e-22
-4.70894e-20
1.93986e-22
-4.72837e-20
1.94383e-22
-4.74785e-20
1.94786e-22
-4.76737e-20
1.95183e-22
-4.78693e-20
1.95587e-22
-4.80653e-20
1.95984e-22
-4.82617e-20
1.96388e-22
-4.84584e-20
1.96785e-22
-4.86556e-20
1.97189e-22
-4.88532e-20
1.97586e-22
-4.90512e-20
1.97989e-22
-4.92496e-20
1.98386e-22
-4.94484e-20
1.9879e-22
-4.96476e-20
1.99187e-22
-4.98471e-20
1.99591e-22
-5.00471e-20
1.99988e-22
-5.02475e-20
2.00392e-22
-5.04483e-20
2.00789e-22
-5.06495e-20
2.01193e-22
-5.08511e-20
2.01589e-22
-5.10531e-20
2.01993e-22
-5.12555e-20
2.0239e-22
-5.14583e-20
2.02794e-22
-5.16614e-20
2.03191e-22
-5.1865e-20
2.03595e-22
-5.2069e-20
2.03992e-22
-5.22734e-20
2.04396e-22
-5.24782e-20
2.04792e-22
-5.26834e-20
2.05196e-22
-5.2889e-20
2.05593e-22
-5.3095e-20
2.05997e-22
-5.33014e-20
2.06394e-22
-5.35082e-20
2.06798e-22
-5.37154e-20
2.07194e-22
-5.3923e-20
2.07599e-22
-5.4131e-20
2.07995e-22
-5.43394e-20
2.084e-22
-5.45482e-20
2.08796e-22
-5.47574e-20
2.092e-22
-5.49669e-20
2.09597e-22
-5.51769e-20
2.10001e-22
-5.53873e-20
2.10397e-22
-5.55981e-20
2.10802e-22
-5.58093e-20
2.11198e-22
-5.60209e-20
2.11603e-22
-5.62329e-20
2.11999e-22
-5.64453e-20
2.12403e-22
-5.66581e-20
2.128e-22
-5.68713e-20
2.13204e-22
-5.70849e-20
2.136e-22
-5.72989e-20
2.14005e-22
-5.75133e-20
2.14401e-22
-5.77281e-20
2.14806e-22
-5.79433e-20
2.15202e-22
-5.81589e-20
2.15607e-22
-5.83749e-20
2.16003e-22
-5.85913e-20
2.16407e-22
-5.88082e-20
2.16803e-22
-5.90254e-20
2.17208e-22
-5.9243e-20
2.17604e-22
-5.9461e-20
2.18009e-22
-5.96794e-20
2.18405e-22
-5.98982e-20
2.1881e-22
-6.01174e-20
2.19206e-22
-6.0337e-20
2.1961e-22
-6.0557e-20
2.20006e-22
-6.07774e-20
2.20411e-22
-6.09982e-20
2.20807e-22
-6.12194e-20
2.21212e-22
-6.1441e-20
2.21608e-22
-6.1663e-20
2.22013e-22
-6.18854e-20
2.22409e-22
-6.21082e-20
2.22814e-22
-6.23315e-20
2.23209e-22
-6.25551e-20
2.23614e-22
-6.27791e-20
2.2401e-22
-6.30035e-20
2.24415e-22
-6.32283e-20
2.24811e-22
-6.34535e-20
2.25216e-22
-6.36791e-20
2.25612e-22
-6.39051e-20
2.26017e-22
-6.41315e-20
2.26412e-22
-6.43584e-20
2.26817e-22
-6.45856e-20
2.27213e-22
-6.48132e-20
2.27618e-22
-6.50412e-20
2.28014e-22
-6.52696e-20
2.28419e-22
-6.54984e-20
2.28814e-22
-6.57276e-20
2.2922e-22
-6.59573e-20
2.29615e-22
-6.61873e-20
2.30021e-22
-6.64177e-20
2.30416e-22
-6.66485e-20
2.30821e-22
-6.68797e-20
2.31217e-22
-6.71113e-20
2.31622e-22
-6.73434e-20
2.32017e-22
-6.75758e-20
2.32423e-22
-6.78086e-20
2.32818e-22
-6.80418e-20
2.33224e-22
-6.82754e-20
2.33619e-22
-6.85095e-20
2.34024e-22
-6.87439e-20
2.3442e-22
-6.89787e-20
2.34825e-22
-6.92139e-20
2.3522e-22
-6.94495e-20
2.35626e-22
-6.96856e-20
2.36021e-22
-6.9922e-20
2.36427e-22
-7.01588e-20
2.36822e-22
-7.0396e-20
2.37227e-22
-7.06336e-20
2.37623e-22
-7.08717e-20
2.38028e-22
-7.11101e-20
2.38423e-22
-7.13489e-20
2.38829e-22
-7.15881e-20
2.39224e-22
-7.18278e-20
2.3963e-22
-7.20678e-20
2.40025e-22
-7.23082e-20
2.40431e-22
-7.2549e-20
2.40826e-22
-7.27903e-20
2.41231e-22
-7.30319e-20
2.41626e-22
-7.32739e-20
2.42032e-22
-7.35164e-20
2.42427e-22
-7.37592e-20
2.42833e-22
-7.40024e-20
2.43228e-22
-7.4246e-20
2.43634e-22
-7.44901e-20
2.44029e-22
-7.47345e-20
2.44434e-22
-7.49793e-20
2.44829e-22
-7.52246e-20
2.45235e-22
-7.54702e-20
2.4563e-22
-7.57162e-20
2.46036e-22
-7.59626e-20
2.46431e-22
-7.62095e-20
2.46837e-22
-7.64567e-20
2.47232e-22
-7.67043e-20
2.47638e-22
-7.69524e-20
2.48032e-22
-7.72008e-20
2.48438e-22
-7.74496e-20
2.48833e-22
-7.76989e-20
2.49239e-22
-7.79485e-20
2.49634e-22
-7.81985e-20
2.5004e-22
-7.8449e-20
2.50434e-22
-7.86998e-20
2.50841e-22
-7.8951e-20
2.51235e-22
-7.92027e-20
2.51641e-22
-7.94547e-20
2.52036e-22
-7.97072e-20
2.52442e-22
-7.996e-20
2.52837e-22
-8.02132e-20
2.53243e-22
-8.04669e-20
2.53637e-22
-8.07209e-20
2.54044e-22
-8.09753e-20
2.54438e-22
-8.12302e-20
2.54845e-22
-8.14854e-20
2.55239e-22
-8.17411e-20
2.55645e-22
-8.19971e-20
2.5604e-22
-8.22535e-20
2.56446e-22
-8.25104e-20
2.5684e-22
-8.27676e-20
2.57247e-22
-8.30253e-20
2.57641e-22
-8.32833e-20
2.58048e-22
-8.35418e-20
2.58442e-22
-8.38006e-20
2.58848e-22
-8.40598e-20
2.59243e-22
-8.43195e-20
2.59649e-22
-8.45795e-20
2.60043e-22
-8.484e-20
2.6045e-22
-8.51008e-20
2.60844e-22
-8.53621e-20
2.61251e-22
-8.56237e-20
2.61645e-22
-8.58858e-20
2.62052e-22
-8.61482e-20
2.62446e-22
-8.6411e-20
2.62852e-22
-8.66743e-20
2.63246e-22
-8.69379e-20
2.63653e-22
-8.7202e-20
2.64047e-22
-8.74664e-20
2.64454e-22
-8.77313e-20
2.64848e-22
-8.79965e-20
2.65255e-22
-8.82622e-20
2.65649e-22
-8.85282e-20
2.66055e-22
-8.87947e-20
2.66449e-22
-8.90615e-20
2.66856e-22
-8.93288e-20
2.6725e-22
-8.95964e-20
2.67657e-22
-8.98645e-20
2.68051e-22
-9.01329e-20
2.68458e-22
-9.04018e-20
2.68851e-22
-9.0671e-20
2.69259e-22
-9.09407e-20
2.69652e-22
-9.12107e-20
2.70059e-22
-9.14812e-20
2.70453e-22
-9.17521e-20
2.7086e-22
-9.20233e-20
2.71254e-22
-9.2295e-20
2.71661e-22
-9.2567e-20
2.72054e-22
-9.28395e-20
2.72462e-22
-9.31123e-20
2.72855e-22
-9.33856e-20
2.73262e-22
-9.36592e-20
2.73656e-22
-9.39333e-20
2.74063e-22
-9.42078e-20
2.74457e-22
-9.44826e-20
2.74864e-22
-9.47579e-20
2.75257e-22
-9.50335e-20
2.75665e-22
-9.53096e-20
2.76058e-22
-9.55861e-20
2.76466e-22
-9.58629e-20
2.76859e-22
-9.61402e-20
2.77266e-22
-9.64178e-20
2.7766e-22
-9.66959e-20
2.78067e-22
-9.69744e-20
2.7846e-22
-9.72532e-20
2.78868e-22
-9.75325e-20
2.79261e-22
-9.78121e-20
2.79669e-22
-9.80922e-20
2.80062e-22
-9.83727e-20
2.80469e-22
-9.86535e-20
2.80863e-22
-9.89348e-20
2.8127e-22
-9.92165e-20
2.81663e-22
-9.94985e-20
2.82071e-22
-9.9781e-20
2.82464e-22
-1.00064e-19
2.82872e-22
-1.00347e-19
2.83265e-22
-1.00631e-19
2.83673e-22
-1.00915e-19
2.84066e-22
-1.01199e-19
2.84473e-22
-1.01484e-19
2.84866e-22
-1.01769e-19
2.85274e-22
-1.02055e-19
2.85667e-22
-1.02341e-19
2.86075e-22
-1.02628e-19
2.86468e-22
-1.02915e-19
2.86876e-22
-1.03202e-19
2.87268e-22
-1.03489e-19
2.87676e-22
-1.03778e-19
2.88069e-22
-1.04066e-19
2.88477e-22
-1.04355e-19
2.8887e-22
-1.04644e-19
2.89278e-22
-1.04934e-19
2.89671e-22
-1.05224e-19
2.90079e-22
-1.05514e-19
2.90471e-22
-1.05805e-19
2.9088e-22
-1.06097e-19
2.91272e-22
-1.06388e-19
2.9168e-22
-1.0668e-19
2.92073e-22
-1.06973e-19
2.92481e-22
-1.07266e-19
2.92874e-22
-1.07559e-19
2.93282e-22
-1.07853e-19
2.93674e-22
-1.08147e-19
2.94083e-22
-1.08441e-19
2.94475e-22
-1.08736e-19
2.94883e-22
-1.09031e-19
2.95276e-22
-1.09327e-19
2.95684e-22
-1.09623e-19
2.96077e-22
-1.09919e-19
2.96485e-22
-1.10216e-19
2.96877e-22
-1.10514e-19
2.97286e-22
-1.10811e-19
2.97678e-22
-1.11109e-19
2.98087e-22
-1.11408e-19
2.98479e-22
-1.11707e-19
2.98887e-22
-1.12006e-19
2.9928e-22
-1.12306e-19
2.99688e-22
-1.12606e-19
3.0008e-22
-1.12906e-19
3.00489e-22
-1.13207e-19
3.00881e-22
-1.13508e-19
3.0129e-22
-1.1381e-19
3.01682e-22
-1.14112e-19
3.02091e-22
-1.14415e-19
3.02482e-22
-1.14718e-19
3.02891e-22
-1.15021e-19
3.03283e-22
-1.15325e-19
3.03692e-22
-1.15629e-19
3.04084e-22
-1.15933e-19
3.04493e-22
-1.16238e-19
3.04885e-22
-1.16543e-19
3.05294e-22
-1.16849e-19
3.05685e-22
-1.17155e-19
3.06094e-22
-1.17462e-19
3.06486e-22
-1.17768e-19
3.06895e-22
-1.18076e-19
3.07287e-22
-1.18383e-19
3.07696e-22
-1.18692e-19
3.08088e-22
-1.19e-19
3.08497e-22
-1.19309e-19
3.08888e-22
-1.19618e-19
3.09298e-22
-1.19928e-19
3.09689e-22
-1.20238e-19
3.10098e-22
-1.20548e-19
3.1049e-22
-1.20859e-19
3.10899e-22
-1.21171e-19
3.11291e-22
-1.21482e-19
3.117e-22
-1.21794e-19
3.12091e-22
-1.22107e-19
3.12501e-22
-1.2242e-19
3.12892e-22
-1.22733e-19
3.13301e-22
-1.23047e-19
3.13693e-22
-1.23361e-19
3.14102e-22
-1.23675e-19
3.14494e-22
-1.2399e-19
3.14903e-22
-1.24306e-19
3.15294e-22
-1.24621e-19
3.15704e-22
-1.24937e-19
3.16095e-22
-1.25254e-19
3.16505e-22
-1.25571e-19
3.16896e-22
-1.25888e-19
3.17305e-22
-1.26206e-19
3.17696e-22
-1.26524e-19
3.18106e-22
-1.26842e-19
3.18497e-22
-1.27161e-19
3.18907e-22
-1.27481e-19
3.19298e-22
-1.278e-19
3.19708e-22
-1.2812e-19
3.20099e-22
-1.28441e-19
3.20508e-22
-1.28762e-19
3.20899e-22
-1.29083e-19
3.21309e-22
-1.29405e-19
3.217e-22
-1.29727e-19
3.2211e-22
-1.30049e-19
3.22501e-22
-1.30372e-19
3.22911e-22
-1.30696e-19
3.23302e-22
-1.31019e-19
3.23712e-22
-1.31343e-19
3.24102e-22
-1.31668e-19
3.24512e-22
-1.31993e-19
3.24903e-22
-1.32318e-19
3.25313e-22
-1.32644e-19
3.25704e-22
-1.3297e-19
3.26114e-22
-1.33296e-19
3.26505e-22
-1.33623e-19
3.26915e-22
-1.33951e-19
3.27305e-22
-1.34278e-19
3.27715e-22
-1.34606e-19
3.28106e-22
-1.34935e-19
3.28516e-22
-1.35264e-19
3.28907e-22
-1.35593e-19
3.29317e-22
-1.35923e-19
3.29707e-22
-1.36253e-19
3.30118e-22
-1.36584e-19
3.30508e-22
-1.36914e-19
3.30919e-22
-1.37246e-19
3.31309e-22
-1.37577e-19
3.31719e-22
-1.3791e-19
3.3211e-22
-1.38242e-19
3.3252e-22
-1.38575e-19
3.3291e-22
-1.38908e-19
3.33321e-22
-1.39242e-19
3.33711e-22
-1.39576e-19
3.34122e-22
-1.39911e-19
3.34512e-22
-1.40246e-19
3.34923e-22
-1.40581e-19
3.35313e-22
-1.40917e-19
3.35723e-22
-1.41253e-19
3.36113e-22
-1.41589e-19
3.36524e-22
-1.41926e-19
3.36914e-22
-1.42263e-19
3.37325e-22
-1.42601e-19
3.37715e-22
-1.42939e-19
3.38126e-22
-1.43278e-19
3.38516e-22
-1.43617e-19
3.38926e-22
-1.43956e-19
3.39316e-22
-1.44296e-19
3.39727e-22
-1.44636e-19
3.40117e-22
-1.44976e-19
3.40528e-22
-1.45317e-19
3.40918e-22
-1.45659e-19
3.41329e-22
-1.46e-19
3.41719e-22
-1.46342e-19
3.4213e-22
-1.46685e-19
3.42519e-22
-1.47028e-19
3.4293e-22
-1.47371e-19
3.4332e-22
-1.47715e-19
3.43731e-22
-1.48059e-19
3.44121e-22
-1.48404e-19
3.44532e-22
-1.48749e-19
3.44921e-22
-1.49094e-19
3.45333e-22
-1.4944e-19
3.45722e-22
-1.49786e-19
3.46133e-22
-1.50132e-19
3.46523e-22
-1.50479e-19
3.46934e-22
-1.50826e-19
3.47324e-22
-1.51174e-19
3.47735e-22
-1.51522e-19
3.48124e-22
-1.51871e-19
3.48536e-22
-1.5222e-19
3.48925e-22
-1.52569e-19
3.49337e-22
-1.52919e-19
3.49726e-22
-1.53269e-19
3.50137e-22
-1.53619e-19
3.50527e-22
-1.5397e-19
3.50938e-22
-1.54322e-19
3.51327e-22
-1.54673e-19
3.51739e-22
-1.55026e-19
3.52128e-22
-1.55378e-19
3.5254e-22
-1.55731e-19
3.52929e-22
-1.56084e-19
3.53341e-22
-1.56438e-19
3.5373e-22
-1.56792e-19
3.54141e-22
-1.57147e-19
3.5453e-22
-1.57502e-19
3.54942e-22
-1.57857e-19
3.55331e-22
-1.58213e-19
3.55743e-22
-1.58569e-19
3.56132e-22
-1.58925e-19
3.56544e-22
-1.59282e-19
3.56932e-22
-1.5964e-19
3.57344e-22
-1.59997e-19
3.57733e-22
-1.60356e-19
3.58145e-22
-1.60714e-19
3.58534e-22
-1.61073e-19
3.58946e-22
-1.61432e-19
3.59335e-22
-1.61792e-19
3.59747e-22
-1.62152e-19
3.60135e-22
-1.62513e-19
3.60548e-22
-1.62874e-19
3.60936e-22
-1.63235e-19
3.61348e-22
-1.63597e-19
3.61737e-22
-1.63959e-19
3.62149e-22
-1.64322e-19
3.62538e-22
-1.64684e-19
3.6295e-22
-1.65048e-19
3.63338e-22
-1.65412e-19
3.63751e-22
-1.65776e-19
3.64139e-22
-1.6614e-19
3.64552e-22
-1.66505e-19
3.6494e-22
-1.66871e-19
3.65352e-22
-1.67236e-19
3.65741e-22
-1.67602e-19
3.66153e-22
-1.67969e-19
3.66541e-22
-1.68336e-19
3.66954e-22
-1.68703e-19
3.67342e-22
-1.69071e-19
3.67755e-22
-1.69439e-19
3.68143e-22
-1.69808e-19
3.68555e-22
-1.70177e-19
3.68943e-22
-1.70546e-19
3.69356e-22
-1.70916e-19
3.69744e-22
-1.71286e-19
3.70157e-22
-1.71656e-19
3.70545e-22
-1.72027e-19
3.70958e-22
-1.72399e-19
3.71346e-22
-1.7277e-19
3.71759e-22
-1.73143e-19
3.72146e-22
-1.73515e-19
3.72559e-22
-1.73888e-19
3.72947e-22
-1.74261e-19
3.7336e-22
-1.74635e-19
3.73748e-22
-1.75009e-19
3.74161e-22
-1.75384e-19
3.74549e-22
-1.75759e-19
3.74962e-22
-1.76134e-19
3.75349e-22
-1.7651e-19
3.75762e-22
-1.76886e-19
3.7615e-22
-1.77263e-19
3.76563e-22
-1.7764e-19
3.76951e-22
-1.78017e-19
3.77364e-22
-1.78395e-19
3.77752e-22
-1.78773e-19
3.78165e-22
-1.79151e-19
3.78552e-22
-1.7953e-19
3.78966e-22
-1.7991e-19
3.79353e-22
-1.8029e-19
3.79766e-22
-1.8067e-19
3.80154e-22
-1.8105e-19
3.80567e-22
-1.81431e-19
3.80954e-22
-1.81813e-19
3.81368e-22
-1.82194e-19
3.81755e-22
-1.82576e-19
3.82169e-22
-1.82959e-19
3.82556e-22
-1.83342e-19
3.8297e-22
-1.83725e-19
3.83357e-22
-1.84109e-19
3.8377e-22
-1.84493e-19
3.84157e-22
-1.84878e-19
3.84571e-22
-1.85263e-19
3.84958e-22
-1.85648e-19
3.85372e-22
-1.86034e-19
3.85759e-22
-1.8642e-19
3.86173e-22
-1.86807e-19
3.8656e-22
-1.87194e-19
3.86973e-22
-1.87581e-19
3.8736e-22
-1.87969e-19
3.87774e-22
-1.88357e-19
3.88161e-22
-1.88745e-19
3.88575e-22
-1.89134e-19
3.88962e-22
-1.89524e-19
3.89376e-22
-1.89914e-19
3.89763e-22
-1.90304e-19
3.90177e-22
-1.90694e-19
3.90563e-22
-1.91085e-19
3.90977e-22
-1.91477e-19
3.91364e-22
-1.91868e-19
3.91778e-22
-1.92261e-19
3.92165e-22
-1.92653e-19
3.92579e-22
-1.93046e-19
3.92965e-22
-1.93439e-19
3.9338e-22
-1.93833e-19
3.93766e-22
-1.94227e-19
3.94181e-22
-1.94622e-19
3.94567e-22
-1.95017e-19
3.94981e-22
-1.95412e-19
3.95368e-22
-1.95808e-19
3.95782e-22
-1.96204e-19
3.96168e-22
-1.96601e-19
3.96583e-22
-1.96998e-19
3.96969e-22
-1.97395e-19
3.97384e-22
-1.97793e-19
3.9777e-22
-1.98191e-19
3.98184e-22
-1.9859e-19
3.98571e-22
-1.98989e-19
3.98985e-22
-1.99388e-19
3.99371e-22
-1.99788e-19
3.99786e-22
-2.00188e-19
4.00172e-22
-2.00589e-19
4.00587e-22
-2.0099e-19
4.00973e-22
-2.01391e-19
4.01388e-22
-2.01793e-19
4.01773e-22
-2.02195e-19
4.02188e-22
-2.02597e-19
4.02574e-22
-2.03e-19
4.02989e-22
-2.03404e-19
4.03375e-22
-2.03808e-19
4.0379e-22
-2.04212e-19
4.04176e-22
-2.04616e-19
4.04591e-22
-2.05021e-19
4.04976e-22
-2.05427e-19
4.05392e-22
-2.05832e-19
4.05777e-22
-2.06239e-19
4.06192e-22
-2.06645e-19
4.06578e-22
-2.07052e-19
4.06993e-22
-2.0746e-19
4.07379e-22
-2.07867e-19
4.07794e-22
-2.08276e-19
4.08179e-22
-2.08684e-19
4.08595e-22
-2.09093e-19
4.0898e-22
-2.09503e-19
4.09395e-22
-2.09912e-19
4.09781e-22
-2.10322e-19
4.10196e-22
-2.10733e-19
4.10582e-22
-2.11144e-19
4.10997e-22
-2.11555e-19
4.11382e-22
-2.11967e-19
4.11798e-22
-2.12379e-19
4.12183e-22
-2.12792e-19
4.12599e-22
-2.13205e-19
4.12984e-22
-2.13618e-19
4.13399e-22
-2.14032e-19
4.13784e-22
-2.14446e-19
4.142e-22
-2.14861e-19
4.14585e-22
-2.15276e-19
4.15001e-22
-2.15691e-19
4.15386e-22
-2.16107e-19
4.15802e-22
-2.16523e-19
4.16187e-22
-2.1694e-19
4.16603e-22
-2.17357e-19
4.16987e-22
-2.17774e-19
4.17403e-22
-2.18192e-19
4.17788e-22
-2.1861e-19
4.18204e-22
-2.19029e-19
4.18589e-22
-2.19448e-19
4.19005e-22
-2.19867e-19
4.1939e-22
-2.20287e-19
4.19806e-22
-2.20707e-19
4.2019e-22
-2.21128e-19
4.20607e-22
-2.21549e-19
4.20991e-22
-2.2197e-19
4.21407e-22
-2.22392e-19
4.21792e-22
-2.22814e-19
4.22208e-22
-2.23237e-19
4.22592e-22
-2.2366e-19
4.23009e-22
-2.24083e-19
4.23393e-22
-2.24507e-19
4.2381e-22
-2.24931e-19
4.24194e-22
-2.25356e-19
4.2461e-22
-2.25781e-19
4.24995e-22
-2.26206e-19
4.25411e-22
-2.26632e-19
4.25795e-22
-2.27058e-19
4.26212e-22
-2.27485e-19
4.26596e-22
-2.27912e-19
4.27013e-22
-2.28339e-19
4.27397e-22
-2.28767e-19
4.27814e-22
-2.29195e-19
4.28198e-22
-2.29624e-19
4.28614e-22
-2.30053e-19
4.28998e-22
-2.30482e-19
4.29415e-22
-2.30912e-19
4.29799e-22
-2.31342e-19
4.30216e-22
-2.31773e-19
4.306e-22
-2.32204e-19
4.31017e-22
-2.32635e-19
4.314e-22
-2.33067e-19
4.31818e-22
-2.33499e-19
4.32201e-22
-2.33932e-19
4.32618e-22
-2.34365e-19
4.33002e-22
-2.34798e-19
4.33419e-22
-2.35232e-19
4.33803e-22
-2.35666e-19
4.3422e-22
-2.36101e-19
4.34603e-22
-2.36536e-19
4.35021e-22
-2.36971e-19
4.35404e-22
-2.37407e-19
4.35821e-22
-2.37843e-19
4.36205e-22
-2.3828e-19
4.36622e-22
-2.38717e-19
4.37006e-22
-2.39154e-19
4.37423e-22
-2.39592e-19
4.37806e-22
-2.4003e-19
4.38224e-22
-2.40469e-19
4.38607e-22
-2.40908e-19
4.39025e-22
-2.41347e-19
4.39408e-22
-2.41787e-19
4.39825e-22
-2.42227e-19
4.40208e-22
-2.42668e-19
4.40626e-22
-2.43109e-19
4.41009e-22
-2.4355e-19
4.41427e-22
-2.43992e-19
4.4181e-22
-2.44434e-19
4.42228e-22
-2.44877e-19
4.42611e-22
-2.4532e-19
4.43029e-22
-2.45764e-19
4.43411e-22
-2.46207e-19
4.43829e-22
-2.46652e-19
4.44212e-22
-2.47096e-19
4.4463e-22
-2.47541e-19
4.45013e-22
-2.47987e-19
4.45431e-22
-2.48432e-19
4.45814e-22
-2.48879e-19
4.46232e-22
-2.49325e-19
4.46614e-22
-2.49772e-19
4.47033e-22
-2.5022e-19
4.47415e-22
-2.50668e-19
4.47833e-22
-2.51116e-19
4.48216e-22
-2.51564e-19
4.48634e-22
-2.52013e-19
4.49017e-22
-2.52463e-19
4.49435e-22
-2.52913e-19
4.49817e-22
-2.53363e-19
4.50236e-22
-2.53813e-19
4.50618e-22
-2.54265e-19
4.51036e-22
-2.54716e-19
4.51419e-22
-2.55168e-19
4.51837e-22
-2.5562e-19
4.52219e-22
-2.56073e-19
4.52638e-22
-2.56526e-19
4.5302e-22
-2.56979e-19
4.53439e-22
-2.57433e-19
4.53821e-22
-2.57887e-19
4.5424e-22
-2.58342e-19
4.54622e-22
-2.58797e-19
4.5504e-22
-2.59252e-19
4.55422e-22
-2.59708e-19
4.55841e-22
-2.60164e-19
4.56223e-22
-2.60621e-19
4.56642e-22
-2.61078e-19
4.57024e-22
-2.61535e-19
4.57443e-22
-2.61993e-19
4.57825e-22
-2.62451e-19
4.58244e-22
-2.6291e-19
4.58625e-22
-2.63369e-19
4.59044e-22
-2.63828e-19
4.59426e-22
-2.64288e-19
4.59845e-22
-2.64749e-19
4.60227e-22
-2.65209e-19
4.60646e-22
-2.6567e-19
4.61027e-22
-2.66132e-19
4.61447e-22
-2.66593e-19
4.61828e-22
-2.67056e-19
4.62248e-22
-2.67518e-19
4.62629e-22
-2.67981e-19
4.63048e-22
-2.68445e-19
4.6343e-22
-2.68909e-19
4.63849e-22
-2.69373e-19
4.6423e-22
-2.69838e-19
4.6465e-22
-2.70303e-19
4.65031e-22
-2.70768e-19
4.65451e-22
-2.71234e-19
4.65832e-22
-2.717e-19
4.66251e-22
-2.72167e-19
4.66633e-22
-2.72634e-19
4.67052e-22
-2.73101e-19
4.67433e-22
-2.73569e-19
4.67853e-22
-2.74037e-19
4.68234e-22
-2.74506e-19
4.68654e-22
-2.74975e-19
4.69035e-22
-2.75444e-19
4.69455e-22
-2.75914e-19