/*--------------------------------*- C++ -*----------------------------------*\
| =========                 |                                                 |
| \\      /  F ield         | OpenFOAM: The Open Source CFD Toolbox           |
|  \\    /   O peration     | Version:  2206                                  |
|   \\  /    A nd           | Website:  www.openfoam.com                      |
|    \\/     M anipulation  |                                                 |
\*---------------------------------------------------------------------------*/
FoamFile
{
    version     2.0;
    format      ascii;
    arch        "LSB;label=32;scalar=64";
    class       volVectorField;
    location    "70";
    object      U;
}
// * * * * * * * * * * * * * * * * * * * * * * * * * * * * * * * * * * * * * //

dimensions      [0 1 -1 0 0 0 0];

internalField   nonuniform List<vector> 
50000
(
(-2.12428e-13 2.40999e-06 -1.75149e-12)
(-4.19793e-13 6.25175e-06 2.05139e-13)
(-3.75172e-12 1.01704e-05 3.12977e-14)
(-5.92889e-12 1.41447e-05 8.06144e-14)
(-7.82304e-12 1.81373e-05 5.02676e-14)
(-9.70411e-12 2.21377e-05 7.6585e-14)
(-1.14675e-11 2.61424e-05 5.87442e-14)
(-1.34344e-11 3.01495e-05 6.53577e-14)
(-1.51329e-11 3.41583e-05 6.29758e-14)
(-1.69744e-11 3.81681e-05 6.98207e-14)
(-1.8765e-11 4.21788e-05 6.13374e-14)
(-2.06062e-11 4.619e-05 6.74113e-14)
(-2.23436e-11 5.02017e-05 6.44563e-14)
(-2.41958e-11 5.42137e-05 6.66481e-14)
(-2.59532e-11 5.8226e-05 6.43695e-14)
(-2.77828e-11 6.22385e-05 6.64816e-14)
(-2.955e-11 6.62512e-05 6.47383e-14)
(-3.137e-11 7.02641e-05 6.63106e-14)
(-3.31452e-11 7.4277e-05 6.4981e-14)
(-3.49569e-11 7.82901e-05 6.61565e-14)
(-3.67396e-11 8.23033e-05 6.50301e-14)
(-3.85436e-11 8.63165e-05 6.6155e-14)
(-4.03306e-11 9.03298e-05 6.51323e-14)
(-4.21318e-11 9.43432e-05 6.60533e-14)
(-4.39207e-11 9.83566e-05 6.52063e-14)
(-4.57195e-11 0.00010237 6.6019e-14)
(-4.75099e-11 0.000106384 6.52584e-14)
(-4.93077e-11 0.000110397 6.59584e-14)
(-5.10984e-11 0.000114411 6.53283e-14)
(-5.28957e-11 0.000118424 6.59006e-14)
(-5.46868e-11 0.000122438 6.53786e-14)
(-5.64835e-11 0.000126452 6.58618e-14)
(-5.82752e-11 0.000130465 6.54131e-14)
(-6.00711e-11 0.000134479 6.58322e-14)
(-6.18634e-11 0.000138493 6.54407e-14)
(-6.36588e-11 0.000142506 6.58072e-14)
(-6.54514e-11 0.00014652 6.54639e-14)
(-6.72465e-11 0.000150534 6.57855e-14)
(-6.90393e-11 0.000154548 6.54835e-14)
(-7.08341e-11 0.000158561 6.57669e-14)
(-7.26272e-11 0.000162575 6.55e-14)
(-7.44218e-11 0.000166589 6.57508e-14)
(-7.62149e-11 0.000170603 6.5514e-14)
(-7.80094e-11 0.000174617 6.57369e-14)
(-7.98027e-11 0.000178631 6.55259e-14)
(-8.1597e-11 0.000182644 6.57248e-14)
(-8.33904e-11 0.000186658 6.55361e-14)
(-8.51846e-11 0.000190672 6.57143e-14)
(-8.6978e-11 0.000194686 6.55449e-14)
(-8.87722e-11 0.0001987 6.5705e-14)
(-9.05657e-11 0.000202714 6.55524e-14)
(-9.23598e-11 0.000206727 6.56969e-14)
(-9.41533e-11 0.000210741 6.55589e-14)
(-9.59473e-11 0.000214755 6.56897e-14)
(-9.77409e-11 0.000218769 6.55646e-14)
(-9.95349e-11 0.000222783 6.56833e-14)
(-1.01328e-10 0.000226797 6.55696e-14)
(-1.03122e-10 0.000230811 6.56776e-14)
(-1.04916e-10 0.000234825 6.5574e-14)
(-1.0671e-10 0.000238839 6.56725e-14)
(-1.08504e-10 0.000242853 6.55779e-14)
(-1.10298e-10 0.000246866 6.5668e-14)
(-1.12091e-10 0.00025088 6.55813e-14)
(-1.13885e-10 0.000254894 6.56639e-14)
(-1.15679e-10 0.000258908 6.55843e-14)
(-1.17473e-10 0.000262922 6.56602e-14)
(-1.19266e-10 0.000266936 6.5587e-14)
(-1.2106e-10 0.00027095 6.56569e-14)
(-1.22854e-10 0.000274964 6.55894e-14)
(-1.24648e-10 0.000278978 6.56539e-14)
(-1.26441e-10 0.000282992 6.55916e-14)
(-1.28235e-10 0.000287006 6.56511e-14)
(-1.30029e-10 0.00029102 6.55935e-14)
(-1.31823e-10 0.000295034 6.56486e-14)
(-1.33616e-10 0.000299048 6.55952e-14)
(-1.3541e-10 0.000303061 6.56464e-14)
(-1.37204e-10 0.000307075 6.55968e-14)
(-1.38998e-10 0.000311089 6.56443e-14)
(-1.40791e-10 0.000315103 6.55982e-14)
(-1.42585e-10 0.000319117 6.56424e-14)
(-1.44379e-10 0.000323131 6.55995e-14)
(-1.46173e-10 0.000327145 6.56407e-14)
(-1.47966e-10 0.000331159 6.56007e-14)
(-1.4976e-10 0.000335173 6.56391e-14)
(-1.51554e-10 0.000339187 6.56018e-14)
(-1.53348e-10 0.000343201 6.56376e-14)
(-1.55141e-10 0.000347215 6.56027e-14)
(-1.56935e-10 0.000351229 6.56362e-14)
(-1.58729e-10 0.000355243 6.56036e-14)
(-1.60523e-10 0.000359257 6.5635e-14)
(-1.62316e-10 0.000363271 6.56045e-14)
(-1.6411e-10 0.000367285 6.56338e-14)
(-1.65904e-10 0.000371299 6.56052e-14)
(-1.67698e-10 0.000375313 6.56328e-14)
(-1.69491e-10 0.000379327 6.56059e-14)
(-1.71285e-10 0.000383341 6.56318e-14)
(-1.73079e-10 0.000387355 6.56065e-14)
(-1.74872e-10 0.000391368 6.56308e-14)
(-1.76666e-10 0.000395382 6.56071e-14)
(-1.7846e-10 0.000399396 6.563e-14)
(-1.80254e-10 0.00040341 6.56077e-14)
(-1.82047e-10 0.000407424 6.56292e-14)
(-1.83841e-10 0.000411438 6.56082e-14)
(-1.85635e-10 0.000415452 6.56284e-14)
(-1.87429e-10 0.000419466 6.56087e-14)
(-1.89222e-10 0.00042348 6.56277e-14)
(-1.91016e-10 0.000427494 6.56091e-14)
(-1.9281e-10 0.000431508 6.56271e-14)
(-1.94603e-10 0.000435522 6.56095e-14)
(-1.96397e-10 0.000439536 6.56265e-14)
(-1.98191e-10 0.00044355 6.56099e-14)
(-1.99985e-10 0.000447564 6.56259e-14)
(-2.01778e-10 0.000451578 6.56102e-14)
(-2.03572e-10 0.000455592 6.56254e-14)
(-2.05366e-10 0.000459606 6.56106e-14)
(-2.0716e-10 0.00046362 6.56249e-14)
(-2.08953e-10 0.000467634 6.56109e-14)
(-2.10747e-10 0.000471648 6.56244e-14)
(-2.12541e-10 0.000475662 6.56112e-14)
(-2.14334e-10 0.000479676 6.56239e-14)
(-2.16128e-10 0.00048369 6.56114e-14)
(-2.17922e-10 0.000487704 6.56235e-14)
(-2.19716e-10 0.000491718 6.56117e-14)
(-2.21509e-10 0.000495732 6.56231e-14)
(-2.23303e-10 0.000499746 6.5612e-14)
(-2.25097e-10 0.00050376 6.56227e-14)
(-2.2689e-10 0.000507774 6.56122e-14)
(-2.28684e-10 0.000511788 6.56224e-14)
(-2.30478e-10 0.000515802 6.56124e-14)
(-2.32272e-10 0.000519816 6.5622e-14)
(-2.34065e-10 0.00052383 6.56126e-14)
(-2.35859e-10 0.000527844 6.56217e-14)
(-2.37653e-10 0.000531858 6.56128e-14)
(-2.39446e-10 0.000535872 6.56214e-14)
(-2.4124e-10 0.000539886 6.5613e-14)
(-2.43034e-10 0.0005439 6.56211e-14)
(-2.44828e-10 0.000547914 6.56132e-14)
(-2.46621e-10 0.000551928 6.56208e-14)
(-2.48415e-10 0.000555941 6.56133e-14)
(-2.50209e-10 0.000559955 6.56206e-14)
(-2.52002e-10 0.000563969 6.56135e-14)
(-2.53796e-10 0.000567983 6.56203e-14)
(-2.5559e-10 0.000571997 6.56137e-14)
(-2.57383e-10 0.000576011 6.56201e-14)
(-2.59177e-10 0.000580025 6.56138e-14)
(-2.60971e-10 0.000584039 6.56198e-14)
(-2.62765e-10 0.000588053 6.56139e-14)
(-2.64558e-10 0.000592067 6.56196e-14)
(-2.66352e-10 0.000596081 6.56141e-14)
(-2.68146e-10 0.000600095 6.56194e-14)
(-2.69939e-10 0.000604109 6.56142e-14)
(-2.71733e-10 0.000608123 6.56192e-14)
(-2.73527e-10 0.000612137 6.56143e-14)
(-2.75321e-10 0.000616151 6.5619e-14)
(-2.77114e-10 0.000620165 6.56144e-14)
(-2.78908e-10 0.000624179 6.56188e-14)
(-2.80702e-10 0.000628193 6.56146e-14)
(-2.82495e-10 0.000632207 6.56187e-14)
(-2.84289e-10 0.000636221 6.56147e-14)
(-2.86083e-10 0.000640235 6.56185e-14)
(-2.87876e-10 0.000644249 6.56148e-14)
(-2.8967e-10 0.000648263 6.56183e-14)
(-2.91464e-10 0.000652277 6.56149e-14)
(-2.93258e-10 0.000656291 6.56182e-14)
(-2.95051e-10 0.000660305 6.5615e-14)
(-2.96845e-10 0.000664319 6.5618e-14)
(-2.98639e-10 0.000668333 6.5615e-14)
(-3.00432e-10 0.000672347 6.56179e-14)
(-3.02226e-10 0.000676361 6.56151e-14)
(-3.0402e-10 0.000680375 6.56178e-14)
(-3.05813e-10 0.000684389 6.56152e-14)
(-3.07607e-10 0.000688403 6.56176e-14)
(-3.09401e-10 0.000692417 6.56153e-14)
(-3.11195e-10 0.000696431 6.56175e-14)
(-3.12988e-10 0.000700445 6.56154e-14)
(-3.14782e-10 0.000704459 6.56174e-14)
(-3.16576e-10 0.000708473 6.56154e-14)
(-3.18369e-10 0.000712487 6.56173e-14)
(-3.20163e-10 0.000716501 6.56155e-14)
(-3.21957e-10 0.000720515 6.56172e-14)
(-3.2375e-10 0.000724529 6.56156e-14)
(-3.25544e-10 0.000728543 6.56171e-14)
(-3.27338e-10 0.000732557 6.56157e-14)
(-3.29131e-10 0.000736571 6.56169e-14)
(-3.30925e-10 0.000740585 6.56157e-14)
(-3.32719e-10 0.000744599 6.56168e-14)
(-3.34513e-10 0.000748613 6.56158e-14)
(-3.36306e-10 0.000752627 6.56168e-14)
(-3.381e-10 0.000756641 6.56159e-14)
(-3.39894e-10 0.000760655 6.56167e-14)
(-3.41687e-10 0.000764669 6.56159e-14)
(-3.43481e-10 0.000768683 6.56166e-14)
(-3.45275e-10 0.000772697 6.5616e-14)
(-3.47068e-10 0.000776711 6.56165e-14)
(-3.48862e-10 0.000780725 6.5616e-14)
(-3.50656e-10 0.000784739 6.56164e-14)
(-3.52449e-10 0.000788753 6.56161e-14)
(-3.54243e-10 0.000792767 6.56163e-14)
(-3.56037e-10 0.000796781 6.56161e-14)
(-3.57831e-10 0.000800795 6.56162e-14)
(-3.59624e-10 0.000804809 6.56162e-14)
(-3.61418e-10 0.000808823 6.56161e-14)
(-3.63212e-10 0.000812837 6.56162e-14)
(-3.65005e-10 0.000816851 6.56161e-14)
(-3.66799e-10 0.000820865 6.56163e-14)
(-3.68593e-10 0.000824879 6.5616e-14)
(-3.70386e-10 0.000828893 6.56163e-14)
(-3.7218e-10 0.000832907 6.56159e-14)
(-3.73974e-10 0.000836921 6.56164e-14)
(-3.75767e-10 0.000840935 6.56159e-14)
(-3.77561e-10 0.000844949 6.56164e-14)
(-3.79355e-10 0.000848963 6.56158e-14)
(-3.81149e-10 0.000852977 6.56165e-14)
(-3.82942e-10 0.000856991 6.56157e-14)
(-3.84736e-10 0.000861005 6.56165e-14)
(-3.8653e-10 0.000865019 6.56157e-14)
(-3.88323e-10 0.000869033 6.56165e-14)
(-3.90117e-10 0.000873047 6.56156e-14)
(-3.91911e-10 0.000877061 6.56166e-14)
(-3.93704e-10 0.000881075 6.56155e-14)
(-3.95498e-10 0.000885089 6.56166e-14)
(-3.97292e-10 0.000889103 6.56155e-14)
(-3.99085e-10 0.000893117 6.56167e-14)
(-4.00879e-10 0.000897131 6.56154e-14)
(-4.02673e-10 0.000901145 6.56167e-14)
(-4.04466e-10 0.000905159 6.56154e-14)
(-4.0626e-10 0.000909173 6.56167e-14)
(-4.08054e-10 0.000913187 6.56153e-14)
(-4.09848e-10 0.000917201 6.56168e-14)
(-4.11641e-10 0.000921215 6.56153e-14)
(-4.13435e-10 0.000925229 6.56168e-14)
(-4.15229e-10 0.000929243 6.56152e-14)
(-4.17022e-10 0.000933257 6.56168e-14)
(-4.18816e-10 0.000937271 6.56152e-14)
(-4.2061e-10 0.000941285 6.56169e-14)
(-4.22403e-10 0.000945299 6.56151e-14)
(-4.24197e-10 0.000949313 6.56169e-14)
(-4.25991e-10 0.000953327 6.56151e-14)
(-4.27784e-10 0.000957341 6.56169e-14)
(-4.29578e-10 0.000961355 6.5615e-14)
(-4.31372e-10 0.000965369 6.5617e-14)
(-4.33165e-10 0.000969383 6.5615e-14)
(-4.34959e-10 0.000973397 6.5617e-14)
(-4.36753e-10 0.000977411 6.56149e-14)
(-4.38546e-10 0.000981425 6.5617e-14)
(-4.4034e-10 0.000985439 6.56149e-14)
(-4.42134e-10 0.000989453 6.56171e-14)
(-4.43928e-10 0.000993467 6.56148e-14)
(-4.45721e-10 0.000997481 6.56171e-14)
(-4.47515e-10 0.00100149 6.56148e-14)
(-4.49309e-10 0.00100551 6.56171e-14)
(-4.51102e-10 0.00100952 6.56148e-14)
(-4.52896e-10 0.00101354 6.56172e-14)
(-4.5469e-10 0.00101755 6.56147e-14)
(-4.56483e-10 0.00102156 6.56172e-14)
(-4.58277e-10 0.00102558 6.56147e-14)
(-4.60071e-10 0.00102959 6.56172e-14)
(-4.61864e-10 0.00103361 6.56146e-14)
(-4.63658e-10 0.00103762 6.56172e-14)
(-4.65452e-10 0.00104163 6.56146e-14)
(-4.67245e-10 0.00104565 6.56173e-14)
(-4.69039e-10 0.00104966 6.56146e-14)
(-4.70833e-10 0.00105368 6.56173e-14)
(-4.72626e-10 0.00105769 6.56145e-14)
(-4.7442e-10 0.0010617 6.56173e-14)
(-4.76214e-10 0.00106572 6.56145e-14)
(-4.78007e-10 0.00106973 6.56173e-14)
(-4.79801e-10 0.00107375 6.56144e-14)
(-4.81595e-10 0.00107776 6.56174e-14)
(-4.83389e-10 0.00108177 6.56144e-14)
(-4.85182e-10 0.00108579 6.56174e-14)
(-4.86976e-10 0.0010898 6.56144e-14)
(-4.8877e-10 0.00109382 6.56174e-14)
(-4.90563e-10 0.00109783 6.56143e-14)
(-4.92357e-10 0.00110184 6.56175e-14)
(-4.94151e-10 0.00110586 6.56143e-14)
(-4.95944e-10 0.00110987 6.56175e-14)
(-4.97738e-10 0.00111389 6.56143e-14)
(-4.99532e-10 0.0011179 6.56175e-14)
(-5.01325e-10 0.00112191 6.56142e-14)
(-5.03119e-10 0.00112593 6.56175e-14)
(-5.04913e-10 0.00112994 6.56142e-14)
(-5.06706e-10 0.00113396 6.56175e-14)
(-5.085e-10 0.00113797 6.56142e-14)
(-5.10294e-10 0.00114198 6.56176e-14)
(-5.12087e-10 0.001146 6.56141e-14)
(-5.13881e-10 0.00115001 6.56176e-14)
(-5.15675e-10 0.00115403 6.56141e-14)
(-5.17468e-10 0.00115804 6.56176e-14)
(-5.19262e-10 0.00116205 6.56141e-14)
(-5.21056e-10 0.00116607 6.56176e-14)
(-5.22849e-10 0.00117008 6.56141e-14)
(-5.24643e-10 0.0011741 6.56176e-14)
(-5.26437e-10 0.00117811 6.5614e-14)
(-5.28231e-10 0.00118212 6.56177e-14)
(-5.30024e-10 0.00118614 6.5614e-14)
(-5.31818e-10 0.00119015 6.56177e-14)
(-5.33612e-10 0.00119417 6.5614e-14)
(-5.35405e-10 0.00119818 6.56177e-14)
(-5.37199e-10 0.00120219 6.56139e-14)
(-5.38993e-10 0.00120621 6.56177e-14)
(-5.40786e-10 0.00121022 6.56139e-14)
(-5.4258e-10 0.00121424 6.56178e-14)
(-5.44374e-10 0.00121825 6.56139e-14)
(-5.46167e-10 0.00122226 6.56178e-14)
(-5.47961e-10 0.00122628 6.56139e-14)
(-5.49755e-10 0.00123029 6.56178e-14)
(-5.51548e-10 0.00123431 6.56138e-14)
(-5.53342e-10 0.00123832 6.56178e-14)
(-5.55136e-10 0.00124233 6.56138e-14)
(-5.56929e-10 0.00124635 6.56178e-14)
(-5.58723e-10 0.00125036 6.56138e-14)
(-5.60517e-10 0.00125438 6.56179e-14)
(-5.6231e-10 0.00125839 6.56138e-14)
(-5.64104e-10 0.0012624 6.56179e-14)
(-5.65898e-10 0.00126642 6.56137e-14)
(-5.67691e-10 0.00127043 6.56179e-14)
(-5.69485e-10 0.00127445 6.56137e-14)
(-5.71279e-10 0.00127846 6.56179e-14)
(-5.73072e-10 0.00128247 6.56137e-14)
(-5.74866e-10 0.00128649 6.56179e-14)
(-5.7666e-10 0.0012905 6.56137e-14)
(-5.78454e-10 0.00129452 6.56179e-14)
(-5.80247e-10 0.00129853 6.56136e-14)
(-5.82041e-10 0.00130254 6.5618e-14)
(-5.83835e-10 0.00130656 6.56136e-14)
(-5.85628e-10 0.00131057 6.5618e-14)
(-5.87422e-10 0.00131459 6.56136e-14)
(-5.89216e-10 0.0013186 6.5618e-14)
(-5.91009e-10 0.00132261 6.56136e-14)
(-5.92803e-10 0.00132663 6.5618e-14)
(-5.94597e-10 0.00133064 6.56135e-14)
(-5.9639e-10 0.00133466 6.5618e-14)
(-5.98184e-10 0.00133867 6.56135e-14)
(-5.99978e-10 0.00134268 6.56181e-14)
(-6.01771e-10 0.0013467 6.56135e-14)
(-6.03565e-10 0.00135071 6.56181e-14)
(-6.05359e-10 0.00135473 6.56135e-14)
(-6.07152e-10 0.00135874 6.56181e-14)
(-6.08946e-10 0.00136275 6.56135e-14)
(-6.1074e-10 0.00136677 6.56181e-14)
(-6.12533e-10 0.00137078 6.56134e-14)
(-6.14327e-10 0.0013748 6.56181e-14)
(-6.16121e-10 0.00137881 6.56134e-14)
(-6.17914e-10 0.00138282 6.56181e-14)
(-6.19708e-10 0.00138684 6.56134e-14)
(-6.21502e-10 0.00139085 6.56182e-14)
(-6.23295e-10 0.00139487 6.56134e-14)
(-6.25089e-10 0.00139888 6.56182e-14)
(-6.26883e-10 0.00140289 6.56133e-14)
(-6.28676e-10 0.00140691 6.56182e-14)
(-6.3047e-10 0.00141092 6.56133e-14)
(-6.32264e-10 0.00141494 6.56182e-14)
(-6.34057e-10 0.00141895 6.56133e-14)
(-6.35851e-10 0.00142296 6.56182e-14)
(-6.37645e-10 0.00142698 6.56133e-14)
(-6.39439e-10 0.00143099 6.56182e-14)
(-6.41232e-10 0.00143501 6.56133e-14)
(-6.43026e-10 0.00143902 6.56183e-14)
(-6.4482e-10 0.00144303 6.56132e-14)
(-6.46613e-10 0.00144705 6.56183e-14)
(-6.48407e-10 0.00145106 6.56132e-14)
(-6.50201e-10 0.00145508 6.56183e-14)
(-6.51994e-10 0.00145909 6.56132e-14)
(-6.53788e-10 0.0014631 6.56183e-14)
(-6.55582e-10 0.00146712 6.56132e-14)
(-6.57375e-10 0.00147113 6.56183e-14)
(-6.59169e-10 0.00147515 6.56132e-14)
(-6.60963e-10 0.00147916 6.56183e-14)
(-6.62756e-10 0.00148317 6.56132e-14)
(-6.6455e-10 0.00148719 6.56183e-14)
(-6.66344e-10 0.0014912 6.56131e-14)
(-6.68137e-10 0.00149522 6.56184e-14)
(-6.69931e-10 0.00149923 6.56131e-14)
(-6.71725e-10 0.00150324 6.56184e-14)
(-6.73518e-10 0.00150726 6.56131e-14)
(-6.75312e-10 0.00151127 6.56184e-14)
(-6.77106e-10 0.00151529 6.56131e-14)
(-6.78899e-10 0.0015193 6.56184e-14)
(-6.80693e-10 0.00152331 6.56131e-14)
(-6.82487e-10 0.00152733 6.56184e-14)
(-6.8428e-10 0.00153134 6.5613e-14)
(-6.86074e-10 0.00153536 6.56184e-14)
(-6.87868e-10 0.00153937 6.5613e-14)
(-6.89661e-10 0.00154338 6.56185e-14)
(-6.91455e-10 0.0015474 6.5613e-14)
(-6.93249e-10 0.00155141 6.56185e-14)
(-6.95042e-10 0.00155543 6.5613e-14)
(-6.96836e-10 0.00155944 6.56185e-14)
(-6.9863e-10 0.00156345 6.5613e-14)
(-7.00423e-10 0.00156747 6.56185e-14)
(-7.02217e-10 0.00157148 6.5613e-14)
(-7.04011e-10 0.0015755 6.56185e-14)
(-7.05804e-10 0.00157951 6.56129e-14)
(-7.07598e-10 0.00158352 6.56185e-14)
(-7.09392e-10 0.00158754 6.56129e-14)
(-7.11186e-10 0.00159155 6.56185e-14)
(-7.12979e-10 0.00159557 6.56129e-14)
(-7.14773e-10 0.00159958 6.56186e-14)
(-7.16567e-10 0.00160359 6.56129e-14)
(-7.1836e-10 0.00160761 6.56186e-14)
(-7.20154e-10 0.00161162 6.56129e-14)
(-7.21948e-10 0.00161564 6.56186e-14)
(-7.23741e-10 0.00161965 6.56129e-14)
(-7.25535e-10 0.00162366 6.56186e-14)
(-7.27329e-10 0.00162768 6.56128e-14)
(-7.29122e-10 0.00163169 6.56186e-14)
(-7.30916e-10 0.00163571 6.56128e-14)
(-7.3271e-10 0.00163972 6.56186e-14)
(-7.34503e-10 0.00164373 6.56128e-14)
(-7.36297e-10 0.00164775 6.56186e-14)
(-7.38091e-10 0.00165176 6.56128e-14)
(-7.39884e-10 0.00165578 6.56187e-14)
(-7.41678e-10 0.00165979 6.56128e-14)
(-7.43472e-10 0.0016638 6.56187e-14)
(-7.45265e-10 0.00166782 6.56127e-14)
(-7.47059e-10 0.00167183 6.56187e-14)
(-7.48853e-10 0.00167585 6.56127e-14)
(-7.50646e-10 0.00167986 6.56187e-14)
(-7.5244e-10 0.00168387 6.56127e-14)
(-7.54234e-10 0.00168789 6.56187e-14)
(-7.56027e-10 0.0016919 6.56127e-14)
(-7.57821e-10 0.00169592 6.56187e-14)
(-7.59615e-10 0.00169993 6.56127e-14)
(-7.61408e-10 0.00170394 6.56187e-14)
(-7.63202e-10 0.00170796 6.56127e-14)
(-7.64996e-10 0.00171197 6.56188e-14)
(-7.66789e-10 0.00171599 6.56126e-14)
(-7.68583e-10 0.00172 6.56188e-14)
(-7.70377e-10 0.00172401 6.56126e-14)
(-7.7217e-10 0.00172803 6.56188e-14)
(-7.73964e-10 0.00173204 6.56126e-14)
(-7.75758e-10 0.00173606 6.56188e-14)
(-7.77551e-10 0.00174007 6.56126e-14)
(-7.79345e-10 0.00174408 6.56188e-14)
(-7.81139e-10 0.0017481 6.56126e-14)
(-7.82932e-10 0.00175211 6.56188e-14)
(-7.84726e-10 0.00175613 6.56126e-14)
(-7.8652e-10 0.00176014 6.56188e-14)
(-7.88313e-10 0.00176415 6.56126e-14)
(-7.90107e-10 0.00176817 6.56189e-14)
(-7.91901e-10 0.00177218 6.56125e-14)
(-7.93694e-10 0.0017762 6.56189e-14)
(-7.95488e-10 0.00178021 6.56125e-14)
(-7.97282e-10 0.00178422 6.56189e-14)
(-7.99076e-10 0.00178824 6.56125e-14)
(-8.00869e-10 0.00179225 6.56189e-14)
(-8.02663e-10 0.00179627 6.56125e-14)
(-8.04457e-10 0.00180028 6.56189e-14)
(-8.0625e-10 0.00180429 6.56125e-14)
(-8.08044e-10 0.00180831 6.56189e-14)
(-8.09838e-10 0.00181232 6.56125e-14)
(-8.11631e-10 0.00181634 6.56189e-14)
(-8.13425e-10 0.00182035 6.56124e-14)
(-8.15219e-10 0.00182436 6.56189e-14)
(-8.17012e-10 0.00182838 6.56124e-14)
(-8.18806e-10 0.00183239 6.5619e-14)
(-8.206e-10 0.00183641 6.56124e-14)
(-8.22393e-10 0.00184042 6.5619e-14)
(-8.24187e-10 0.00184443 6.56124e-14)
(-8.25981e-10 0.00184845 6.5619e-14)
(-8.27774e-10 0.00185246 6.56124e-14)
(-8.29568e-10 0.00185648 6.5619e-14)
(-8.31362e-10 0.00186049 6.56124e-14)
(-8.33155e-10 0.0018645 6.5619e-14)
(-8.34949e-10 0.00186852 6.56124e-14)
(-8.36743e-10 0.00187253 6.5619e-14)
(-8.38536e-10 0.00187655 6.56123e-14)
(-8.4033e-10 0.00188056 6.5619e-14)
(-8.42124e-10 0.00188457 6.56123e-14)
(-8.43917e-10 0.00188859 6.56191e-14)
(-8.45711e-10 0.0018926 6.56123e-14)
(-8.47505e-10 0.00189662 6.56191e-14)
(-8.49298e-10 0.00190063 6.56123e-14)
(-8.51092e-10 0.00190464 6.56191e-14)
(-8.52886e-10 0.00190866 6.56123e-14)
(-8.54679e-10 0.00191267 6.56191e-14)
(-8.56473e-10 0.00191669 6.56123e-14)
(-8.58267e-10 0.0019207 6.56191e-14)
(-8.6006e-10 0.00192471 6.56122e-14)
(-8.61854e-10 0.00192873 6.56191e-14)
(-8.63648e-10 0.00193274 6.56122e-14)
(-8.65441e-10 0.00193676 6.56191e-14)
(-8.67235e-10 0.00194077 6.56122e-14)
(-8.69029e-10 0.00194478 6.56191e-14)
(-8.70822e-10 0.0019488 6.56122e-14)
(-8.72616e-10 0.00195281 6.56192e-14)
(-8.7441e-10 0.00195683 6.56122e-14)
(-8.76203e-10 0.00196084 6.56192e-14)
(-8.77997e-10 0.00196485 6.56122e-14)
(-8.79791e-10 0.00196887 6.56192e-14)
(-8.81584e-10 0.00197288 6.56122e-14)
(-8.83378e-10 0.0019769 6.56192e-14)
(-8.85172e-10 0.00198091 6.56121e-14)
(-8.86965e-10 0.00198492 6.56192e-14)
(-8.88759e-10 0.00198894 6.56121e-14)
(-8.90553e-10 0.00199295 6.56192e-14)
(-8.92346e-10 0.00199697 6.56121e-14)
(-8.9414e-10 0.00200098 6.56192e-14)
(-8.95934e-10 0.00200499 6.56121e-14)
(-8.97727e-10 0.00200901 6.56193e-14)
(-8.99521e-10 0.00201302 6.56121e-14)
(-9.01315e-10 0.00201704 6.56193e-14)
(-9.03108e-10 0.00202105 6.56121e-14)
(-9.04902e-10 0.00202506 6.56193e-14)
(-9.06696e-10 0.00202908 6.56121e-14)
(-9.08489e-10 0.00203309 6.56193e-14)
(-9.10283e-10 0.00203711 6.5612e-14)
(-9.12077e-10 0.00204112 6.56193e-14)
(-9.13871e-10 0.00204513 6.5612e-14)
(-9.15664e-10 0.00204915 6.56193e-14)
(-9.17458e-10 0.00205316 6.5612e-14)
(-9.19252e-10 0.00205718 6.56193e-14)
(-9.21045e-10 0.00206119 6.5612e-14)
(-9.22839e-10 0.0020652 6.56193e-14)
(-9.24633e-10 0.00206922 6.5612e-14)
(-9.26426e-10 0.00207323 6.56193e-14)
(-9.2822e-10 0.00207725 6.5612e-14)
(-9.30014e-10 0.00208126 6.56194e-14)
(-9.31807e-10 0.00208527 6.5612e-14)
(-9.33601e-10 0.00208929 6.56194e-14)
(-9.35395e-10 0.0020933 6.5612e-14)
(-9.37188e-10 0.00209732 6.56194e-14)
(-9.38982e-10 0.00210133 6.56119e-14)
(-9.40776e-10 0.00210534 6.56194e-14)
(-9.42569e-10 0.00210936 6.56119e-14)
(-9.44363e-10 0.00211337 6.56194e-14)
(-9.46157e-10 0.00211739 6.56119e-14)
(-9.4795e-10 0.0021214 6.56194e-14)
(-9.49744e-10 0.00212541 6.56119e-14)
(-9.51538e-10 0.00212943 6.56194e-14)
(-9.53331e-10 0.00213344 6.56119e-14)
(-9.55125e-10 0.00213746 6.56194e-14)
(-9.56919e-10 0.00214147 6.56119e-14)
(-9.58712e-10 0.00214548 6.56195e-14)
(-9.60506e-10 0.0021495 6.56119e-14)
(-9.623e-10 0.00215351 6.56195e-14)
(-9.64093e-10 0.00215753 6.56118e-14)
(-9.65887e-10 0.00216154 6.56195e-14)
(-9.67681e-10 0.00216555 6.56118e-14)
(-9.69474e-10 0.00216957 6.56195e-14)
(-9.71268e-10 0.00217358 6.56118e-14)
(-9.73062e-10 0.0021776 6.56195e-14)
(-9.74855e-10 0.00218161 6.56118e-14)
(-9.76649e-10 0.00218562 6.56195e-14)
(-9.78443e-10 0.00218964 6.56118e-14)
(-9.80236e-10 0.00219365 6.56195e-14)
(-9.8203e-10 0.00219767 6.56118e-14)
(-9.83824e-10 0.00220168 6.56196e-14)
(-9.85617e-10 0.00220569 6.56118e-14)
(-9.87411e-10 0.00220971 6.56196e-14)
(-9.89205e-10 0.00221372 6.56117e-14)
(-9.90998e-10 0.00221774 6.56196e-14)
(-9.92792e-10 0.00222175 6.56117e-14)
(-9.94586e-10 0.00222576 6.56196e-14)
(-9.96379e-10 0.00222978 6.56117e-14)
(-9.98173e-10 0.00223379 6.56196e-14)
(-9.99967e-10 0.00223781 6.56117e-14)
(-1.00176e-09 0.00224182 6.56196e-14)
(-1.00355e-09 0.00224583 6.56117e-14)
(-1.00535e-09 0.00224985 6.56196e-14)
(-1.00714e-09 0.00225386 6.56117e-14)
(-1.00894e-09 0.00225788 6.56196e-14)
(-1.01073e-09 0.00226189 6.56117e-14)
(-1.01252e-09 0.0022659 6.56197e-14)
(-1.01432e-09 0.00226992 6.56117e-14)
(-1.01611e-09 0.00227393 6.56197e-14)
(-1.0179e-09 0.00227795 6.56116e-14)
(-1.0197e-09 0.00228196 6.56197e-14)
(-1.02149e-09 0.00228597 6.56116e-14)
(-1.02328e-09 0.00228999 6.56197e-14)
(-1.02508e-09 0.002294 6.56116e-14)
(-1.02687e-09 0.00229802 6.56197e-14)
(-1.02867e-09 0.00230203 6.56116e-14)
(-1.03046e-09 0.00230604 6.56197e-14)
(-1.03225e-09 0.00231006 6.56116e-14)
(-1.03405e-09 0.00231407 6.56197e-14)
(-1.03584e-09 0.00231809 6.56116e-14)
(-1.03763e-09 0.0023221 6.56197e-14)
(-1.03943e-09 0.00232611 6.56116e-14)
(-1.04122e-09 0.00233013 6.56198e-14)
(-1.04301e-09 0.00233414 6.56115e-14)
(-1.04481e-09 0.00233816 6.56198e-14)
(-1.0466e-09 0.00234217 6.56115e-14)
(-1.0484e-09 0.00234618 6.56198e-14)
(-1.05019e-09 0.0023502 6.56115e-14)
(-1.05198e-09 0.00235421 6.56198e-14)
(-1.05378e-09 0.00235823 6.56115e-14)
(-1.05557e-09 0.00236224 6.56198e-14)
(-1.05736e-09 0.00236625 6.56115e-14)
(-1.05916e-09 0.00237027 6.56198e-14)
(-1.06095e-09 0.00237428 6.56115e-14)
(-1.06275e-09 0.0023783 6.56198e-14)
(-1.06454e-09 0.00238231 6.56115e-14)
(-1.06633e-09 0.00238632 6.56198e-14)
(-1.06813e-09 0.00239034 6.56114e-14)
(-1.06992e-09 0.00239435 6.56199e-14)
(-1.07171e-09 0.00239837 6.56114e-14)
(-1.07351e-09 0.00240238 6.56199e-14)
(-1.0753e-09 0.00240639 6.56114e-14)
(-1.07709e-09 0.00241041 6.56199e-14)
(-1.07889e-09 0.00241442 6.56114e-14)
(-1.08068e-09 0.00241844 6.56199e-14)
(-1.08248e-09 0.00242245 6.56114e-14)
(-1.08427e-09 0.00242646 6.56199e-14)
(-1.08606e-09 0.00243048 6.56114e-14)
(-1.08786e-09 0.00243449 6.56199e-14)
(-1.08965e-09 0.00243851 6.56114e-14)
(-1.09144e-09 0.00244252 6.56199e-14)
(-1.09324e-09 0.00244653 6.56114e-14)
(-1.09503e-09 0.00245055 6.56199e-14)
(-1.09682e-09 0.00245456 6.56113e-14)
(-1.09862e-09 0.00245858 6.562e-14)
(-1.10041e-09 0.00246259 6.56113e-14)
(-1.10221e-09 0.0024666 6.562e-14)
(-1.104e-09 0.00247062 6.56113e-14)
(-1.10579e-09 0.00247463 6.562e-14)
(-1.10759e-09 0.00247865 6.56113e-14)
(-1.10938e-09 0.00248266 6.562e-14)
(-1.11117e-09 0.00248667 6.56113e-14)
(-1.11297e-09 0.00249069 6.562e-14)
(-1.11476e-09 0.0024947 6.56113e-14)
(-1.11656e-09 0.00249872 6.562e-14)
(-1.11835e-09 0.00250273 6.56113e-14)
(-1.12014e-09 0.00250674 6.562e-14)
(-1.12194e-09 0.00251076 6.56113e-14)
(-1.12373e-09 0.00251477 6.562e-14)
(-1.12552e-09 0.00251879 6.56112e-14)
(-1.12732e-09 0.0025228 6.562e-14)
(-1.12911e-09 0.00252681 6.56112e-14)
(-1.1309e-09 0.00253083 6.56201e-14)
(-1.1327e-09 0.00253484 6.56112e-14)
(-1.13449e-09 0.00253886 6.56201e-14)
(-1.13629e-09 0.00254287 6.56112e-14)
(-1.13808e-09 0.00254688 6.56201e-14)
(-1.13987e-09 0.0025509 6.56112e-14)
(-1.14167e-09 0.00255491 6.56201e-14)
(-1.14346e-09 0.00255893 6.56112e-14)
(-1.14525e-09 0.00256294 6.56201e-14)
(-1.14705e-09 0.00256695 6.56112e-14)
(-1.14884e-09 0.00257097 6.56201e-14)
(-1.15064e-09 0.00257498 6.56112e-14)
(-1.15243e-09 0.002579 6.56201e-14)
(-1.15422e-09 0.00258301 6.56111e-14)
(-1.15602e-09 0.00258702 6.56201e-14)
(-1.15781e-09 0.00259104 6.56111e-14)
(-1.1596e-09 0.00259505 6.56202e-14)
(-1.1614e-09 0.00259907 6.56111e-14)
(-1.16319e-09 0.00260308 6.56202e-14)
(-1.16498e-09 0.00260709 6.56111e-14)
(-1.16678e-09 0.00261111 6.56202e-14)
(-1.16857e-09 0.00261512 6.56111e-14)
(-1.17037e-09 0.00261914 6.56202e-14)
(-1.17216e-09 0.00262315 6.56111e-14)
(-1.17395e-09 0.00262716 6.56202e-14)
(-1.17575e-09 0.00263118 6.56111e-14)
(-1.17754e-09 0.00263519 6.56202e-14)
(-1.17933e-09 0.00263921 6.5611e-14)
(-1.18113e-09 0.00264322 6.56202e-14)
(-1.18292e-09 0.00264723 6.5611e-14)
(-1.18471e-09 0.00265125 6.56202e-14)
(-1.18651e-09 0.00265526 6.5611e-14)
(-1.1883e-09 0.00265928 6.56203e-14)
(-1.1901e-09 0.00266329 6.5611e-14)
(-1.19189e-09 0.0026673 6.56203e-14)
(-1.19368e-09 0.00267132 6.5611e-14)
(-1.19548e-09 0.00267533 6.56203e-14)
(-1.19727e-09 0.00267935 6.5611e-14)
(-1.19906e-09 0.00268336 6.56203e-14)
(-1.20086e-09 0.00268737 6.5611e-14)
(-1.20265e-09 0.00269139 6.56203e-14)
(-1.20445e-09 0.0026954 6.5611e-14)
(-1.20624e-09 0.00269942 6.56203e-14)
(-1.20803e-09 0.00270343 6.56109e-14)
(-1.20983e-09 0.00270744 6.56203e-14)
(-1.21162e-09 0.00271146 6.56109e-14)
(-1.21341e-09 0.00271547 6.56203e-14)
(-1.21521e-09 0.00271949 6.56109e-14)
(-1.217e-09 0.0027235 6.56203e-14)
(-1.21879e-09 0.00272751 6.56109e-14)
(-1.22059e-09 0.00273153 6.56204e-14)
(-1.22238e-09 0.00273554 6.56109e-14)
(-1.22418e-09 0.00273956 6.56204e-14)
(-1.22597e-09 0.00274357 6.56109e-14)
(-1.22776e-09 0.00274758 6.56204e-14)
(-1.22956e-09 0.0027516 6.56109e-14)
(-1.23135e-09 0.00275561 6.56204e-14)
(-1.23314e-09 0.00275963 6.56109e-14)
(-1.23494e-09 0.00276364 6.56204e-14)
(-1.23673e-09 0.00276765 6.56108e-14)
(-1.23852e-09 0.00277167 6.56204e-14)
(-1.24032e-09 0.00277568 6.56108e-14)
(-1.24211e-09 0.0027797 6.56204e-14)
(-1.24391e-09 0.00278371 6.56108e-14)
(-1.2457e-09 0.00278772 6.56204e-14)
(-1.24749e-09 0.00279174 6.56108e-14)
(-1.24929e-09 0.00279575 6.56205e-14)
(-1.25108e-09 0.00279977 6.56108e-14)
(-1.25287e-09 0.00280378 6.56205e-14)
(-1.25467e-09 0.00280779 6.56108e-14)
(-1.25646e-09 0.00281181 6.56205e-14)
(-1.25826e-09 0.00281582 6.56108e-14)
(-1.26005e-09 0.00281984 6.56205e-14)
(-1.26184e-09 0.00282385 6.56107e-14)
(-1.26364e-09 0.00282786 6.56205e-14)
(-1.26543e-09 0.00283188 6.56107e-14)
(-1.26722e-09 0.00283589 6.56205e-14)
(-1.26902e-09 0.00283991 6.56107e-14)
(-1.27081e-09 0.00284392 6.56205e-14)
(-1.2726e-09 0.00284793 6.56107e-14)
(-1.2744e-09 0.00285195 6.56206e-14)
(-1.27619e-09 0.00285596 6.56107e-14)
(-1.27799e-09 0.00285998 6.56206e-14)
(-1.27978e-09 0.00286399 6.56107e-14)
(-1.28157e-09 0.002868 6.56206e-14)
(-1.28337e-09 0.00287202 6.56107e-14)
(-1.28516e-09 0.00287603 6.56206e-14)
(-1.28695e-09 0.00288005 6.56107e-14)
(-1.28875e-09 0.00288406 6.56206e-14)
(-1.29054e-09 0.00288807 6.56106e-14)
(-1.29233e-09 0.00289209 6.56206e-14)
(-1.29413e-09 0.0028961 6.56106e-14)
(-1.29592e-09 0.00290012 6.56206e-14)
(-1.29772e-09 0.00290413 6.56106e-14)
(-1.29951e-09 0.00290814 6.56206e-14)
(-1.3013e-09 0.00291216 6.56106e-14)
(-1.3031e-09 0.00291617 6.56206e-14)
(-1.30489e-09 0.00292019 6.56106e-14)
(-1.30668e-09 0.0029242 6.56207e-14)
(-1.30848e-09 0.00292821 6.56106e-14)
(-1.31027e-09 0.00293223 6.56207e-14)
(-1.31207e-09 0.00293624 6.56106e-14)
(-1.31386e-09 0.00294026 6.56207e-14)
(-1.31565e-09 0.00294427 6.56106e-14)
(-1.31745e-09 0.00294828 6.56207e-14)
(-1.31924e-09 0.0029523 6.56105e-14)
(-1.32103e-09 0.00295631 6.56207e-14)
(-1.32283e-09 0.00296033 6.56105e-14)
(-1.32462e-09 0.00296434 6.56207e-14)
(-1.32641e-09 0.00296835 6.56105e-14)
(-1.32821e-09 0.00297237 6.56207e-14)
(-1.33e-09 0.00297638 6.56105e-14)
(-1.3318e-09 0.0029804 6.56207e-14)
(-1.33359e-09 0.00298441 6.56105e-14)
(-1.33538e-09 0.00298842 6.56208e-14)
(-1.33718e-09 0.00299244 6.56105e-14)
(-1.33897e-09 0.00299645 6.56208e-14)
(-1.34076e-09 0.00300047 6.56105e-14)
(-1.34256e-09 0.00300448 6.56208e-14)
(-1.34435e-09 0.00300849 6.56105e-14)
(-1.34615e-09 0.00301251 6.56208e-14)
(-1.34794e-09 0.00301652 6.56104e-14)
(-1.34973e-09 0.00302054 6.56208e-14)
(-1.35153e-09 0.00302455 6.56104e-14)
(-1.35332e-09 0.00302856 6.56208e-14)
(-1.35511e-09 0.00303258 6.56104e-14)
(-1.35691e-09 0.00303659 6.56208e-14)
(-1.3587e-09 0.00304061 6.56104e-14)
(-1.36049e-09 0.00304462 6.56208e-14)
(-1.36229e-09 0.00304863 6.56104e-14)
(-1.36408e-09 0.00305265 6.56209e-14)
(-1.36588e-09 0.00305666 6.56104e-14)
(-1.36767e-09 0.00306068 6.56209e-14)
(-1.36946e-09 0.00306469 6.56104e-14)
(-1.37126e-09 0.0030687 6.56209e-14)