/*--------------------------------*- C++ -*----------------------------------*\
| =========                 |                                                 |
| \\      /  F ield         | OpenFOAM: The Open Source CFD Toolbox           |
|  \\    /   O peration     | Version:  2206                                  |
|   \\  /    A nd           | Website:  www.openfoam.com                      |
|    \\/     M anipulation  |                                                 |
\*---------------------------------------------------------------------------*/
FoamFile
{
    version     2.0;
    format      ascii;
    arch        "LSB;label=32;scalar=64";
    class       volVectorField;
    location    "170";
    object      U;
}
// * * * * * * * * * * * * * * * * * * * * * * * * * * * * * * * * * * * * * //

dimensions      [0 1 -1 0 0 0 0];

internalField   nonuniform List<vector> 
100000
(
(-1.66297e-12 5.96091e-06 -1.34997e-12)
(-2.46842e-12 1.07057e-05 -7.81161e-14)
(-8.33702e-12 1.96299e-05 8.80835e-14)
(-1.19013e-11 2.92154e-05 2.2723e-13)
(-1.39478e-11 3.79622e-05 9.58921e-14)
(-1.64425e-11 3.9931e-05 4.3973e-14)
(-1.9122e-11 4.88563e-05 1.10469e-13)
(-2.43748e-11 5.85415e-05 1.3665e-13)
(-2.84161e-11 6.82152e-05 1.44491e-13)
(-3.25664e-11 7.70319e-05 7.61948e-14)
(-3.13991e-11 7.89458e-05 6.7786e-14)
(-3.50065e-11 8.78507e-05 1.33107e-13)
(-4.00989e-11 9.75393e-05 1.35482e-13)
(-4.47222e-11 0.00010722 1.36705e-13)
(-4.90533e-11 0.000116056 7.58117e-14)
(-4.70067e-11 0.00011796 7.23149e-14)
(-5.14259e-11 0.000126855 1.32163e-13)
(-5.58436e-11 0.000136544 1.36654e-13)
(-6.11716e-11 0.000146226 1.35694e-13)
(-6.46724e-11 0.000155072 7.5461e-14)
(-6.3602e-11 0.000156972 7.25161e-14)
(-6.68706e-11 0.000165861 1.32888e-13)
(-7.26218e-11 0.000175554 1.37267e-13)
(-7.64529e-11 0.000185298 1.39216e-13)
(-8.22171e-11 0.000194986 1.36108e-13)
(-8.55387e-11 0.000203837 7.6451e-14)
(-8.4362e-11 0.000205736 7.29205e-14)
(-8.79295e-11 0.00021462 1.3501e-13)
(-9.31586e-11 0.000224309 1.37166e-13)
(-9.77257e-11 0.000233994 1.36739e-13)
(-1.02009e-10 0.000242849 7.52153e-14)
(-1.00059e-10 0.000244746 7.37681e-14)
(-1.04254e-10 0.000253629 1.34313e-13)
(-1.08973e-10 0.000263317 1.37557e-13)
(-1.13947e-10 0.000273003 1.35948e-13)
(-1.17897e-10 0.000281859 7.54109e-14)
(-1.1622e-10 0.000283756 7.34463e-14)
(-1.20198e-10 0.000292637 1.34614e-13)
(-1.25091e-10 0.000302326 1.37134e-13)
(-1.29922e-10 0.000312011 1.35981e-13)
(-1.33982e-10 0.00032087 7.50067e-14)
(-1.3222e-10 0.000322766 7.36908e-14)
(-1.36268e-10 0.000331646 1.34405e-13)
(-1.41104e-10 0.000341334 1.37203e-13)
(-1.45976e-10 0.00035102 1.35648e-13)
(-1.50003e-10 0.00035988 7.50169e-14)
(-1.48268e-10 0.000361776 7.35839e-14)
(-1.52299e-10 0.000370655 1.34514e-13)
(-1.57145e-10 0.000380343 1.37003e-13)
(-1.6201e-10 0.000390029 1.35619e-13)
(-1.66037e-10 0.000398889 7.48021e-14)
(-1.64309e-10 0.000400786 7.37081e-14)
(-1.68329e-10 0.000409663 1.34402e-13)
(-1.73192e-10 0.000419352 1.37032e-13)
(-1.78033e-10 0.000429038 1.35408e-13)
(-1.82089e-10 0.000437899 7.48093e-14)
(-1.80325e-10 0.000439796 7.36284e-14)
(-1.84393e-10 0.000448672 1.34491e-13)
(-1.89194e-10 0.00045836 1.36871e-13)
(-1.9411e-10 0.000468047 1.35425e-13)
(-1.98072e-10 0.000476909 7.46133e-14)
(-1.96425e-10 0.000478805 7.37772e-14)
(-2.0035e-10 0.000487681 1.34333e-13)
(-2.05327e-10 0.000497369 1.36991e-13)
(-2.10027e-10 0.000507056 1.35153e-13)
(-2.14252e-10 0.000515918 7.47708e-14)
(-2.12285e-10 0.000517815 7.3534e-14)
(-2.16603e-10 0.00052669 1.34624e-13)
(-2.21101e-10 0.000536378 1.36599e-13)
(-2.26382e-10 0.000546065 1.35501e-13)
(-2.29898e-10 0.000554928 7.42221e-14)
(-2.28794e-10 0.000556824 7.41372e-14)
(-2.32066e-10 0.000565699 1.33937e-13)
(-2.37834e-10 0.000575391 1.37987e-13)
(-2.41646e-10 0.000585136 1.38429e-13)
(-2.47419e-10 0.000594826 1.35107e-13)
(-2.50705e-10 0.00060369 7.51684e-14)
(-2.49575e-10 0.000605586 7.36322e-14)
(-2.53103e-10 0.00061446 1.35106e-13)
(-2.58369e-10 0.000624148 1.36977e-13)
(-2.62891e-10 0.000633835 1.35688e-13)
(-2.67201e-10 0.000642699 7.45538e-14)
(-2.65232e-10 0.000644595 7.40813e-14)
(-2.6945e-10 0.00065347 1.34705e-13)
(-2.74151e-10 0.000663157 1.37228e-13)
(-2.79133e-10 0.000672844 1.35374e-13)
(-2.83066e-10 0.000681708 7.4703e-14)
(-2.81407e-10 0.000683604 7.39174e-14)
(-2.85373e-10 0.000692479 1.34804e-13)
(-2.90279e-10 0.000702166 1.37082e-13)
(-2.95093e-10 0.000711853 1.35391e-13)
(-2.99162e-10 0.000720718 7.45993e-14)
(-2.97393e-10 0.000722614 7.39584e-14)
(-3.01451e-10 0.000731488 1.34746e-13)
(-3.06279e-10 0.000741175 1.37064e-13)
(-3.11158e-10 0.000750862 1.35322e-13)
(-3.15171e-10 0.000759727 7.45668e-14)
(-3.13452e-10 0.000761623 7.39551e-14)
(-3.17465e-10 0.000770497 1.34717e-13)
(-3.22337e-10 0.000780184 1.37041e-13)
(-3.27171e-10 0.000789871 1.35252e-13)
(-3.3123e-10 0.000798736 7.45581e-14)
(-3.29461e-10 0.000800632 7.39183e-14)
(-3.33532e-10 0.000809506 1.34738e-13)
(-3.38336e-10 0.000819194 1.36958e-13)
(-3.4325e-10 0.00082888 1.35268e-13)
(-3.47212e-10 0.000837746 7.44538e-14)
(-3.45562e-10 0.000839642 7.40027e-14)
(-3.49489e-10 0.000848515 1.34615e-13)
(-3.54468e-10 0.000858203 1.37055e-13)
(-3.59168e-10 0.000867889 1.35074e-13)
(-3.63391e-10 0.000876755 7.46098e-14)
(-3.61423e-10 0.000878651 7.37771e-14)
(-3.65739e-10 0.000887524 1.34867e-13)
(-3.70243e-10 0.000897212 1.36704e-13)
(-3.75521e-10 0.000906898 1.35427e-13)
(-3.7904e-10 0.000915764 7.41133e-14)
(-3.77929e-10 0.00091766 7.43446e-14)
(-3.81205e-10 0.000926533 1.3419e-13)
(-3.86973e-10 0.000936224 1.38083e-13)
(-3.90786e-10 0.00094597 1.38366e-13)
(-3.96558e-10 0.00095566 1.34901e-13)
(-3.99842e-10 0.000964526 7.49917e-14)
(-3.98715e-10 0.000966422 7.37382e-14)
(-4.02242e-10 0.000975294 1.35194e-13)
(-4.0751e-10 0.000984982 1.36924e-13)
(-4.12029e-10 0.000994669 1.3553e-13)
(-4.1634e-10 0.00100354 7.43904e-14)
(-4.14371e-10 0.00100543 7.41997e-14)
(-4.18589e-10 0.0010143 1.34785e-13)
(-4.23291e-10 0.00102399 1.3721e-13)
(-4.28272e-10 0.00103368 1.35232e-13)
(-4.32205e-10 0.00104254 7.45778e-14)
(-4.30546e-10 0.00104444 7.40181e-14)
(-4.34512e-10 0.00105331 1.34906e-13)
(-4.39418e-10 0.001063 1.37065e-13)
(-4.44233e-10 0.00107269 1.3529e-13)
(-4.483e-10 0.00108155 7.44775e-14)
(-4.46533e-10 0.00108345 7.40734e-14)
(-4.50587e-10 0.00109232 1.34836e-13)
(-4.55423e-10 0.00110201 1.37079e-13)
(-4.60293e-10 0.0011117 1.35223e-13)
(-4.64316e-10 0.00112056 7.44829e-14)
(-4.62584e-10 0.00112246 7.40441e-14)
(-4.66612e-10 0.00113133 1.34837e-13)
(-4.71466e-10 0.00114102 1.37037e-13)
(-4.76324e-10 0.00115071 1.35207e-13)
(-4.80352e-10 0.00115957 7.44478e-14)
(-4.78621e-10 0.00116147 7.40528e-14)
(-4.82643e-10 0.00117034 1.34804e-13)
(-4.87509e-10 0.00118003 1.37031e-13)
(-4.92348e-10 0.00118971 1.35158e-13)
(-4.96402e-10 0.00119858 7.44526e-14)
(-4.94637e-10 0.00120048 7.40184e-14)
(-4.98705e-10 0.00120935 1.34823e-13)
(-5.03512e-10 0.00121904 1.36966e-13)
(-5.08423e-10 0.00122872 1.35184e-13)
(-5.12388e-10 0.00123759 7.43704e-14)
(-5.10735e-10 0.00123949 7.40919e-14)
(-5.14664e-10 0.00124836 1.34712e-13)
(-5.19642e-10 0.00125805 1.37064e-13)
(-5.24343e-10 0.00126773 1.35014e-13)
(-5.28565e-10 0.0012766 7.45289e-14)
(-5.26598e-10 0.0012785 7.38734e-14)
(-5.30912e-10 0.00128737 1.34958e-13)
(-5.35419e-10 0.00129705 1.36729e-13)
(-5.40695e-10 0.00130674 1.35373e-13)
(-5.44215e-10 0.00131561 7.40497e-14)
(-5.43102e-10 0.0013175 7.44329e-14)
(-5.46379e-10 0.00132638 1.34288e-13)
(-5.52148e-10 0.00133607 1.38109e-13)
(-5.55961e-10 0.00134581 1.38314e-13)
(-5.61732e-10 0.0013555 1.34781e-13)
(-5.65015e-10 0.00136437 7.48931e-14)
(-5.63891e-10 0.00136627 7.37812e-14)
(-5.67417e-10 0.00137514 1.35216e-13)
(-5.72686e-10 0.00138483 1.36879e-13)
(-5.77202e-10 0.00139451 1.3543e-13)
(-5.81514e-10 0.00140338 7.42987e-14)
(-5.79546e-10 0.00140528 7.4248e-14)
(-5.83764e-10 0.00141415 1.34808e-13)
(-5.88466e-10 0.00142383 1.37179e-13)
(-5.93447e-10 0.00143352 1.3514e-13)
(-5.97378e-10 0.00144239 7.44998e-14)
(-5.95721e-10 0.00144428 7.40634e-14)
(-5.99686e-10 0.00145316 1.34938e-13)
(-6.04594e-10 0.00146284 1.3704e-13)
(-6.09406e-10 0.00147253 1.35213e-13)
(-6.13476e-10 0.0014814 7.44067e-14)
(-6.11706e-10 0.00148329 7.41196e-14)
(-6.15764e-10 0.00149217 1.34873e-13)
(-6.20595e-10 0.00150185 1.37059e-13)
(-6.25471e-10 0.00151154 1.35161e-13)
(-6.29485e-10 0.00152041 7.44132e-14)
(-6.27765e-10 0.0015223 7.41003e-14)
(-6.31778e-10 0.00153117 1.34865e-13)
(-6.36652e-10 0.00154086 1.37041e-13)
(-6.41485e-10 0.00155055 1.35133e-13)
(-6.45544e-10 0.00155942 7.44132e-14)
(-6.43775e-10 0.00156131 7.40736e-14)
(-6.47845e-10 0.00157018 1.34881e-13)
(-6.52651e-10 0.00157987 1.36985e-13)
(-6.57563e-10 0.00158956 1.35163e-13)
(-6.61527e-10 0.00159843 7.43378e-14)
(-6.59874e-10 0.00160032 7.41461e-14)
(-6.63803e-10 0.00160919 1.34772e-13)
(-6.68782e-10 0.00161888 1.37087e-13)
(-6.73482e-10 0.00162857 1.34999e-13)
(-6.77704e-10 0.00163743 7.45019e-14)
(-6.75736e-10 0.00163933 7.3926e-14)
(-6.80051e-10 0.0016482 1.35021e-13)
(-6.84558e-10 0.00165789 1.36754e-13)
(-6.89834e-10 0.00166758 1.35365e-13)
(-6.93355e-10 0.00167644 7.40243e-14)
(-6.9224e-10 0.00167834 7.44881e-14)
(-6.95518e-10 0.00168721 1.34349e-13)
(-7.01287e-10 0.0016969 1.3814e-13)
(-7.051e-10 0.00170665 1.383e-13)
(-7.10871e-10 0.00171634 1.34739e-13)
(-7.14153e-10 0.00172521 7.48495e-14)
(-7.1303e-10 0.0017271 7.38137e-14)
(-7.16555e-10 0.00173597 1.35239e-13)
(-7.21825e-10 0.00174566 1.36873e-13)
(-7.26341e-10 0.00175535 1.35391e-13)
(-7.30653e-10 0.00176421 7.4262e-14)
(-7.28685e-10 0.00176611 7.42792e-14)
(-7.32903e-10 0.00177498 1.34837e-13)
(-7.37605e-10 0.00178467 1.37176e-13)
(-7.42585e-10 0.00179436 1.35108e-13)
(-7.46517e-10 0.00180322 7.44664e-14)
(-7.4486e-10 0.00180512 7.40955e-14)
(-7.48826e-10 0.00181399 1.34969e-13)
(-7.53733e-10 0.00182368 1.37041e-13)
(-7.58546e-10 0.00183337 1.35188e-13)
(-7.62613e-10 0.00184223 7.43751e-14)
(-7.60847e-10 0.00184413 7.41552e-14)
(-7.64901e-10 0.001853 1.34903e-13)
(-7.69737e-10 0.00186269 1.37069e-13)
(-7.74606e-10 0.00187237 1.35134e-13)
(-7.78629e-10 0.00188124 7.43942e-14)
(-7.76897e-10 0.00188314 7.41244e-14)
(-7.80926e-10 0.00189201 1.34912e-13)
(-7.8578e-10 0.0019017 1.37035e-13)
(-7.90637e-10 0.00191138 1.35135e-13)
(-7.94666e-10 0.00192025 7.43672e-14)
(-7.92935e-10 0.00192215 7.41357e-14)
(-7.96957e-10 0.00193102 1.34883e-13)
(-8.01823e-10 0.00194071 1.3704e-13)
(-8.06662e-10 0.00195039 1.35097e-13)
(-8.10716e-10 0.00195926 7.43824e-14)
(-8.08951e-10 0.00196116 7.41006e-14)
(-8.13018e-10 0.00197003 1.34908e-13)
(-8.17827e-10 0.00197971 1.36983e-13)
(-8.22737e-10 0.0019894 1.35135e-13)
(-8.26702e-10 0.00199827 7.43075e-14)
(-8.25048e-10 0.00200017 7.41753e-14)
(-8.28978e-10 0.00200904 1.348e-13)
(-8.33956e-10 0.00201872 1.37088e-13)
(-8.38657e-10 0.00202841 1.34975e-13)
(-8.42878e-10 0.00203728 7.44744e-14)
(-8.40911e-10 0.00203917 7.39563e-14)
(-8.45225e-10 0.00204805 1.3505e-13)
(-8.49733e-10 0.00205773 1.36759e-13)
(-8.55008e-10 0.00206742 1.35345e-13)
(-8.5853e-10 0.00207629 7.40004e-14)
(-8.57414e-10 0.00207818 7.4518e-14)
(-8.60693e-10 0.00208705 1.3438e-13)
(-8.66462e-10 0.00209675 1.38147e-13)
(-8.70274e-10 0.00210649 1.38279e-13)
(-8.76045e-10 0.00211618 1.34694e-13)
(-8.79327e-10 0.00212505 7.48127e-14)
(-8.78205e-10 0.00212695 7.3828e-14)
(-8.8173e-10 0.00213582 1.35245e-13)
(-8.87e-10 0.0021455 1.36854e-13)
(-8.91515e-10 0.00215519 1.35351e-13)
(-8.95827e-10 0.00216406 7.4227e-14)
(-8.93859e-10 0.00216595 7.42957e-14)
(-8.98079e-10 0.00217483 1.34843e-13)
(-9.0278e-10 0.00218451 1.37162e-13)
(-9.0776e-10 0.0021942 1.35072e-13)
(-9.11691e-10 0.00220307 7.44356e-14)
(-9.10035e-10 0.00220496 7.41117e-14)
(-9.14e-10 0.00221383 1.34978e-13)
(-9.18909e-10 0.00222352 1.37029e-13)
(-9.23719e-10 0.00223321 1.35155e-13)
(-9.27789e-10 0.00224208 7.43475e-14)
(-9.26019e-10 0.00224397 7.41706e-14)
(-9.30078e-10 0.00225284 1.34917e-13)
(-9.34909e-10 0.00226253 1.37057e-13)
(-9.39785e-10 0.00227222 1.3511e-13)
(-9.43798e-10 0.00228109 7.43614e-14)
(-9.42079e-10 0.00228298 7.41507e-14)
(-9.46092e-10 0.00229185 1.34915e-13)
(-9.50966e-10 0.00230154 1.37043e-13)
(-9.55798e-10 0.00231123 1.35092e-13)
(-9.59857e-10 0.0023201 7.43649e-14)
(-9.58088e-10 0.00232199 7.4127e-14)
(-9.62158e-10 0.00233086 1.34932e-13)
(-9.66965e-10 0.00234055 1.36995e-13)
(-9.71877e-10 0.00235024 1.35127e-13)
(-9.7584e-10 0.0023591 7.42965e-14)
(-9.74187e-10 0.002361 7.41982e-14)
(-9.78116e-10 0.00236987 1.34828e-13)
(-9.83096e-10 0.00237956 1.37099e-13)
(-9.87796e-10 0.00238925 1.34972e-13)
(-9.92018e-10 0.00239811 7.44632e-14)
(-9.9005e-10 0.00240001 7.39809e-14)
(-9.94364e-10 0.00240888 1.35078e-13)
(-9.98873e-10 0.00241857 1.36773e-13)
(-1.00415e-09 0.00242825 1.35343e-13)
(-1.00767e-09 0.00243712 7.39912e-14)
(-1.00655e-09 0.00243902 7.45427e-14)
(-1.00983e-09 0.00244789 1.34409e-13)
(-1.0156e-09 0.00245758 1.38163e-13)
(-1.01941e-09 0.00246733 1.38276e-13)
(-1.02518e-09 0.00247702 1.34677e-13)
(-1.02847e-09 0.00248588 7.47952e-14)
(-1.02734e-09 0.00248778 7.38429e-14)
(-1.03087e-09 0.00249665 1.35258e-13)
(-1.03614e-09 0.00250634 1.36853e-13)
(-1.04065e-09 0.00251603 1.35337e-13)
(-1.04497e-09 0.00252489 7.42108e-14)
(-1.043e-09 0.00252679 7.43117e-14)
(-1.04722e-09 0.00253566 1.34857e-13)
(-1.05192e-09 0.00254535 1.37164e-13)
(-1.0569e-09 0.00255503 1.35058e-13)
(-1.06083e-09 0.0025639 7.44223e-14)
(-1.05917e-09 0.0025658 7.41265e-14)
(-1.06314e-09 0.00257467 1.34996e-13)
(-1.06805e-09 0.00258436 1.3703e-13)
(-1.07286e-09 0.00259404 1.35147e-13)
(-1.07693e-09 0.00260291 7.43318e-14)
(-1.07516e-09 0.00260481 7.41906e-14)
(-1.07921e-09 0.00261368 1.3493e-13)
(-1.08405e-09 0.00262337 1.37066e-13)
(-1.08892e-09 0.00263305 1.35095e-13)
(-1.09294e-09 0.00264192 7.43581e-14)
(-1.09121e-09 0.00264382 7.41575e-14)
(-1.09524e-09 0.00265269 1.34945e-13)
(-1.10009e-09 0.00266237 1.37033e-13)
(-1.10495e-09 0.00267206 1.35105e-13)
(-1.10898e-09 0.00268093 7.43311e-14)
(-1.10725e-09 0.00268283 7.41733e-14)
(-1.11127e-09 0.0026917 1.34916e-13)
(-1.11614e-09 0.00270138 1.37046e-13)
(-1.12098e-09 0.00271107 1.35068e-13)
(-1.12503e-09 0.00271994 7.43533e-14)
(-1.12326e-09 0.00272184 7.41354e-14)
(-1.12733e-09 0.00273071 1.34947e-13)
(-1.13214e-09 0.00274039 1.36988e-13)
(-1.13705e-09 0.00275008 1.35115e-13)
(-1.14102e-09 0.00275895 7.42778e-14)
(-1.13936e-09 0.00276084 7.42148e-14)
(-1.14329e-09 0.00276971 1.34837e-13)
(-1.14827e-09 0.0027794 1.37101e-13)
(-1.15297e-09 0.00278909 1.34956e-13)
(-1.15719e-09 0.00279796 7.44516e-14)
(-1.15522e-09 0.00279985 7.39924e-14)
(-1.15954e-09 0.00280872 1.35094e-13)
(-1.16405e-09 0.00281841 1.36771e-13)
(-1.16932e-09 0.0028281 1.35334e-13)
(-1.17284e-09 0.00283697 7.39756e-14)
(-1.17173e-09 0.00283886 7.45598e-14)
(-1.17501e-09 0.00284773 1.34421e-13)
(-1.18078e-09 0.00285742 1.38167e-13)
(-1.18459e-09 0.00286717 1.3826e-13)
(-1.19036e-09 0.00287686 1.34656e-13)
(-1.19364e-09 0.00288573 7.47727e-14)
(-1.19252e-09 0.00288762 7.38525e-14)
(-1.19604e-09 0.00289649 1.35256e-13)
(-1.20131e-09 0.00290618 1.36844e-13)
(-1.20583e-09 0.00291587 1.35312e-13)
(-1.21014e-09 0.00292474 7.41951e-14)
(-1.20817e-09 0.00292663 7.43164e-14)
(-1.21239e-09 0.0029355 1.34862e-13)
(-1.21709e-09 0.00294519 1.37152e-13)
(-1.22207e-09 0.00295488 1.35041e-13)
(-1.226e-09 0.00296375 7.4402e-14)
(-1.22435e-09 0.00296564 7.41379e-14)
(-1.22831e-09 0.00297451 1.34996e-13)
(-1.23322e-09 0.0029842 1.37027e-13)
(-1.23803e-09 0.00299389 1.35124e-13)
(-1.2421e-09 0.00300276 7.4321e-14)
(-1.24033e-09 0.00300465 7.41933e-14)
(-1.24439e-09 0.00301352 1.34941e-13)
(-1.24922e-09 0.00302321 1.37053e-13)
(-1.2541e-09 0.0030329 1.35088e-13)
(-1.25811e-09 0.00304176 7.43329e-14)
(-1.25639e-09 0.00304366 7.41788e-14)
(-1.26041e-09 0.00305253 1.34936e-13)
(-1.26528e-09 0.00306222 1.37047e-13)
(-1.27011e-09 0.00307191 1.35069e-13)
(-1.27417e-09 0.00308077 7.43434e-14)
(-1.2724e-09 0.00308267 7.41512e-14)
(-1.27647e-09 0.00309154 1.34961e-13)
(-1.28128e-09 0.00310123 1.36997e-13)
(-1.28619e-09 0.00311091 1.35111e-13)
(-1.29015e-09 0.00311978 7.42725e-14)
(-1.2885e-09 0.00312168 7.4228e-14)
(-1.29243e-09 0.00313055 1.34854e-13)
(-1.29741e-09 0.00314024 1.37109e-13)
(-1.30211e-09 0.00314992 1.34955e-13)
(-1.30633e-09 0.00315879 7.44463e-14)
(-1.30436e-09 0.00316069 7.40064e-14)
(-1.30868e-09 0.00316956 1.35111e-13)
(-1.31319e-09 0.00317925 1.3678e-13)
(-1.31846e-09 0.00318893 1.35334e-13)
(-1.32198e-09 0.0031978 7.39708e-14)
(-1.32087e-09 0.0031997 7.45745e-14)
(-1.32415e-09 0.00320857 1.34438e-13)
(-1.32991e-09 0.00321826 1.38177e-13)
(-1.33373e-09 0.003228 1.38259e-13)
(-1.3395e-09 0.00323769 1.34648e-13)
(-1.34278e-09 0.00324656 7.47631e-14)
(-1.34166e-09 0.00324846 7.38619e-14)
(-1.34518e-09 0.00325733 1.35265e-13)
(-1.35045e-09 0.00326702 1.36845e-13)
(-1.35497e-09 0.0032767 1.35304e-13)
(-1.35928e-09 0.00328557 7.41868e-14)
(-1.35731e-09 0.00328747 7.43259e-14)
(-1.36153e-09 0.00329634 1.34871e-13)
(-1.36623e-09 0.00330603 1.37153e-13)
(-1.37121e-09 0.00331571 1.35035e-13)
(-1.37514e-09 0.00332458 7.4395e-14)
(-1.37349e-09 0.00332648 7.41469e-14)
(-1.37745e-09 0.00333535 1.35007e-13)
(-1.38236e-09 0.00334503 1.37028e-13)
(-1.38717e-09 0.00335472 1.35121e-13)
(-1.39124e-09 0.00336359 7.43118e-14)
(-1.38947e-09 0.00336549 7.42064e-14)
(-1.39353e-09 0.00337436 1.34948e-13)
(-1.39837e-09 0.00338404 1.37061e-13)
(-1.40323e-09 0.00339373 1.35078e-13)
(-1.40726e-09 0.0034026 7.43345e-14)
(-1.40552e-09 0.0034045 7.41796e-14)
(-1.40955e-09 0.00341337 1.3496e-13)
(-1.41441e-09 0.00342305 1.37036e-13)
(-1.41926e-09 0.00343274 1.35085e-13)
(-1.42329e-09 0.00344161 7.43149e-14)
(-1.42156e-09 0.0034435 7.41905e-14)
(-1.42558e-09 0.00345237 1.34938e-13)
(-1.43045e-09 0.00346206 1.37045e-13)
(-1.43529e-09 0.00347175 1.35056e-13)
(-1.43934e-09 0.00348062 7.43331e-14)
(-1.43758e-09 0.00348251 7.4159e-14)
(-1.44164e-09 0.00349138 1.34965e-13)
(-1.44645e-09 0.00350107 1.36996e-13)
(-1.45136e-09 0.00351076 1.35099e-13)
(-1.45533e-09 0.00351963 7.42649e-14)
(-1.45367e-09 0.00352152 7.42333e-14)
(-1.4576e-09 0.00353039 1.34863e-13)
(-1.46258e-09 0.00354008 1.37105e-13)
(-1.46728e-09 0.00354977 1.34948e-13)
(-1.47151e-09 0.00355864 7.44345e-14)
(-1.46954e-09 0.00356053 7.40172e-14)
(-1.47385e-09 0.0035694 1.35115e-13)
(-1.47836e-09 0.00357909 1.36782e-13)
(-1.48364e-09 0.00358878 1.35323e-13)
(-1.48716e-09 0.00359765 7.39654e-14)
(-1.48604e-09 0.00359954 7.45799e-14)
(-1.48932e-09 0.00360841 1.34449e-13)
(-1.49509e-09 0.0036181 1.38175e-13)
(-1.4989e-09 0.00362785 1.38254e-13)
(-1.50467e-09 0.00363754 1.34629e-13)
(-1.50795e-09 0.00364641 7.47536e-14)
(-1.50683e-09 0.0036483 7.38626e-14)
(-1.51036e-09 0.00365717 1.35267e-13)
(-1.51563e-09 0.00366686 1.36835e-13)
(-1.52014e-09 0.00367655 1.35293e-13)
(-1.52445e-09 0.00368542 7.41722e-14)
(-1.52249e-09 0.00368731 7.43329e-14)
(-1.52671e-09 0.00369618 1.34869e-13)
(-1.53141e-09 0.00370587 1.3715e-13)
(-1.53639e-09 0.00371556 1.35019e-13)
(-1.54032e-09 0.00372443 7.43866e-14)
(-1.53866e-09 0.00372632 7.4149e-14)
(-1.54263e-09 0.00373519 1.3501e-13)
(-1.54754e-09 0.00374488 1.37021e-13)
(-1.55235e-09 0.00375457 1.3511e-13)
(-1.55642e-09 0.00376343 7.43008e-14)
(-1.55465e-09 0.00376533 7.42113e-14)
(-1.55871e-09 0.0037742 1.34951e-13)
(-1.56354e-09 0.00378389 1.37055e-13)
(-1.56841e-09 0.00379357 1.3507e-13)
(-1.57243e-09 0.00380244 7.43204e-14)
(-1.57071e-09 0.00380434 7.41912e-14)
(-1.57472e-09 0.00381321 1.34954e-13)
(-1.57959e-09 0.0038229 1.37044e-13)
(-1.58443e-09 0.00383258 1.35059e-13)
(-1.58848e-09 0.00384145 7.43259e-14)
(-1.58672e-09 0.00384335 7.41706e-14)
(-1.59078e-09 0.00385222 1.34973e-13)
(-1.59559e-09 0.00386191 1.37002e-13)
(-1.6005e-09 0.00387159 1.35097e-13)
(-1.60447e-09 0.00388046 7.42626e-14)
(-1.60281e-09 0.00388236 7.42415e-14)
(-1.60674e-09 0.00389123 1.34875e-13)
(-1.61172e-09 0.00390092 1.3711e-13)
(-1.61642e-09 0.0039106 1.34949e-13)
(-1.62064e-09 0.00391947 7.44312e-14)
(-1.61868e-09 0.00392137 7.40269e-14)
(-1.62299e-09 0.00393024 1.35127e-13)
(-1.6275e-09 0.00393992 1.36789e-13)
(-1.63277e-09 0.00394961 1.35324e-13)
(-1.6363e-09 0.00395848 7.39631e-14)
(-1.63518e-09 0.00396038 7.45894e-14)
(-1.63846e-09 0.00396925 1.34461e-13)
(-1.64423e-09 0.00397894 1.38182e-13)
(-1.64804e-09 0.00398868 1.38254e-13)
(-1.65381e-09 0.00399837 1.34624e-13)
(-1.65709e-09 0.00400724 7.47482e-14)
(-1.65597e-09 0.00400914 7.38687e-14)
(-1.6595e-09 0.00401801 1.35274e-13)
(-1.66477e-09 0.00402769 1.36836e-13)
(-1.66928e-09 0.00403738 1.35289e-13)
(-1.67359e-09 0.00404625 7.41668e-14)
(-1.67163e-09 0.00404815 7.43398e-14)
(-1.67584e-09 0.00405702 1.34875e-13)
(-1.68055e-09 0.0040667 1.37152e-13)
(-1.68553e-09 0.00407639 1.35015e-13)
(-1.68946e-09 0.00408526 7.4383e-14)
(-1.6878e-09 0.00408716 7.41546e-14)
(-1.69177e-09 0.00409603 1.35019e-13)
(-1.69667e-09 0.00410571 1.37021e-13)
(-1.70149e-09 0.0041154 1.3511e-13)
(-1.70555e-09 0.00412427 7.42941e-14)
(-1.70379e-09 0.00412616 7.42216e-14)
(-1.70784e-09 0.00413503 1.34955e-13)
(-1.71268e-09 0.00414472 1.37063e-13)
(-1.71755e-09 0.00415441 1.35062e-13)
(-1.72157e-09 0.00416328 7.43248e-14)
(-1.71984e-09 0.00416517 7.41884e-14)
(-1.72387e-09 0.00417404 1.34975e-13)
(-1.72872e-09 0.00418373 1.37033e-13)
(-1.73358e-09 0.00419342 1.35077e-13)
(-1.73761e-09 0.00420229 7.42992e-14)
(-1.73588e-09 0.00420418 7.42069e-14)
(-1.7399e-09 0.00421305 1.34947e-13)
(-1.74476e-09 0.00422274 1.3705e-13)
(-1.7496e-09 0.00423243 1.35043e-13)
(-1.75366e-09 0.0042413 7.43255e-14)
(-1.75189e-09 0.00424319 7.41688e-14)
(-1.75596e-09 0.00425206 1.34982e-13)
(-1.76077e-09 0.00426175 1.36995e-13)
(-1.76568e-09 0.00427144 1.35095e-13)
(-1.76964e-09 0.00428031 7.42512e-14)
(-1.76799e-09 0.0042822 7.42506e-14)
(-1.77192e-09 0.00429107 1.34874e-13)
(-1.7769e-09 0.00430076 1.37112e-13)
(-1.7816e-09 0.00431045 1.34938e-13)
(-1.78582e-09 0.00431931 7.4429e-14)
(-1.78385e-09 0.00432121 7.40278e-14)
(-1.78816e-09 0.00433008 1.35135e-13)
(-1.79268e-09 0.00433977 1.36784e-13)
(-1.79795e-09 0.00434946 1.35322e-13)
(-1.80147e-09 0.00435832 7.39533e-14)
(-1.80035e-09 0.00436022 7.45985e-14)
(-1.80363e-09 0.00436909 1.34461e-13)
(-1.8094e-09 0.00437878 1.38185e-13)
(-1.81322e-09 0.00438853 1.38244e-13)
(-1.81899e-09 0.00439822 1.34617e-13)
(-1.82227e-09 0.00440709 7.47355e-14)
(-1.82115e-09 0.00440898 7.38749e-14)
(-1.82467e-09 0.00441785 1.35269e-13)
(-1.82994e-09 0.00442754 1.36834e-13)
(-1.83446e-09 0.00443723 1.35275e-13)
(-1.83877e-09 0.00444609 7.41628e-14)
(-1.8368e-09 0.00444799 7.4338e-14)
(-1.84102e-09 0.00445686 1.34879e-13)
(-1.84572e-09 0.00446655 1.37143e-13)
(-1.8507e-09 0.00447624 1.3501e-13)
(-1.85463e-09 0.0044851 7.43706e-14)
(-1.85298e-09 0.004487 7.41622e-14)
(-1.85694e-09 0.00449587 1.35014e-13)
(-1.86185e-09 0.00450556 1.37023e-13)
(-1.86666e-09 0.00451524 1.35095e-13)
(-1.87073e-09 0.00452411 7.42933e-14)
(-1.86896e-09 0.00452601 7.42174e-14)
(-1.87302e-09 0.00453488 1.34963e-13)
(-1.87785e-09 0.00454457 1.37051e-13)
(-1.88273e-09 0.00455425 1.35064e-13)
(-1.88674e-09 0.00456312 7.43061e-14)
(-1.88502e-09 0.00456502 7.42054e-14)
(-1.88903e-09 0.00457389 1.3496e-13)
(-1.89391e-09 0.00458358 1.37049e-13)
(-1.89874e-09 0.00459326 1.35047e-13)
(-1.9028e-09 0.00460213 7.43201e-14)
(-1.90103e-09 0.00460403 7.41775e-14)
(-1.9051e-09 0.0046129 1.34988e-13)
(-1.90991e-09 0.00462258 1.37e-13)
(-1.91482e-09 0.00463227 1.35094e-13)
(-1.91878e-09 0.00464114 7.425e-14)
(-1.91713e-09 0.00464304 7.42566e-14)
(-1.92106e-09 0.00465191 1.34882e-13)
(-1.92604e-09 0.00466159 1.37117e-13)
(-1.93074e-09 0.00467128 1.34939e-13)
(-1.93496e-09 0.00468015 7.44272e-14)
(-1.93299e-09 0.00468205 7.40345e-14)
(-1.9373e-09 0.00469092 1.35143e-13)
(-1.94181e-09 0.0047006 1.36789e-13)
(-1.94709e-09 0.00471029 1.35323e-13)
(-1.95061e-09 0.00471916 7.39517e-14)
(-1.94949e-09 0.00472105 7.46056e-14)
(-1.95277e-09 0.00472992 1.3447e-13)
(-1.95854e-09 0.00473962 1.38191e-13)
(-1.96235e-09 0.00474936 1.38244e-13)
(-1.96812e-09 0.00475905 1.34615e-13)
(-1.97141e-09 0.00476792 7.47318e-14)
(-1.97029e-09 0.00476982 7.38796e-14)
(-1.97381e-09 0.00477869 1.35274e-13)
(-1.97908e-09 0.00478837 1.36835e-13)
(-1.98359e-09 0.00479806 1.35273e-13)
(-1.98791e-09 0.00480693 7.41595e-14)
(-1.98594e-09 0.00480883 7.43429e-14)
(-1.99016e-09 0.0048177 1.34884e-13)
(-1.99486e-09 0.00482738 1.37145e-13)
(-1.99984e-09 0.00483707 1.35007e-13)
(-2.00377e-09 0.00484594 7.43683e-14)
(-2.00211e-09 0.00484783 7.41664e-14)
(-2.00608e-09 0.0048567 1.35021e-13)
(-2.01099e-09 0.00486639 1.37023e-13)
(-2.0158e-09 0.00487608 1.35096e-13)
(-2.01987e-09 0.00488495 7.42883e-14)
(-2.0181e-09 0.00488684 7.42256e-14)
(-2.02216e-09 0.00489571 1.34965e-13)
(-2.02699e-09 0.0049054 1.37058e-13)
(-2.03186e-09 0.00491509 1.35057e-13)
(-2.03588e-09 0.00492396 7.43116e-14)
(-2.03415e-09 0.00492585 7.4201e-14)
(-2.03818e-09 0.00493472 1.34979e-13)
(-2.04304e-09 0.00494441 1.37037e-13)
(-2.04789e-09 0.0049541 1.35065e-13)
(-2.05192e-09 0.00496297 7.42949e-14)
(-2.05019e-09 0.00496486 7.42116e-14)
(-2.05421e-09 0.00497373 1.34959e-13)
(-2.05908e-09 0.00498342 1.37047e-13)
(-2.06392e-09 0.00499311 1.35041e-13)
(-2.06797e-09 0.00500198 7.43136e-14)
(-2.0662e-09 0.00500387 7.41822e-14)
(-2.07027e-09 0.00501274 1.34987e-13)
(-2.07508e-09 0.00502243 1.37001e-13)
(-2.07999e-09 0.00503212 1.35085e-13)
(-2.08396e-09 0.00504098 7.42483e-14)
(-2.0823e-09 0.00504288 7.42561e-14)
(-2.08623e-09 0.00505175 1.34888e-13)
(-2.09121e-09 0.00506144 1.37111e-13)
(-2.09591e-09 0.00507112 1.34938e-13)
(-2.10013e-09 0.00507999 7.44183e-14)
(-2.09816e-09 0.00508189 7.4042e-14)
(-2.10248e-09 0.00509076 1.35141e-13)
(-2.10699e-09 0.00510045 1.36792e-13)
(-2.11226e-09 0.00511013 1.35314e-13)
(-2.11578e-09 0.005119 7.39516e-14)
(-2.11467e-09 0.0051209 7.46048e-14)
(-2.11795e-09 0.00512977 1.34477e-13)
(-2.12372e-09 0.00513946 1.38186e-13)
(-2.12753e-09 0.0051492 1.38244e-13)
(-2.1333e-09 0.0051589 1.34602e-13)
(-2.13658e-09 0.00516776 7.47297e-14)
(-2.13546e-09 0.00516966 7.38766e-14)
(-2.13898e-09 0.00517853 1.35277e-13)
(-2.14426e-09 0.00518822 1.36827e-13)
(-2.14877e-09 0.0051979 1.35269e-13)
(-2.15308e-09 0.00520677 7.41492e-14)
(-2.15111e-09 0.00520867 7.43486e-14)
(-2.15533e-09 0.00521754 1.3488e-13)
(-2.16003e-09 0.00522723 1.37145e-13)
(-2.16501e-09 0.00523691 1.34996e-13)
(-2.16894e-09 0.00524578 7.43663e-14)
(-2.16729e-09 0.00524768 7.41645e-14)
(-2.17125e-09 0.00525655 1.35024e-13)
(-2.17616e-09 0.00526624 1.37017e-13)
(-2.18097e-09 0.00527592 1.35092e-13)
(-2.18504e-09 0.00528479 7.42808e-14)
(-2.18327e-09 0.00528669 7.42289e-14)
(-2.18733e-09 0.00529556 1.34965e-13)
(-2.19216e-09 0.00530524 1.37055e-13)
(-2.19704e-09 0.00531493 1.35052e-13)
(-2.20105e-09 0.0053238 7.43031e-14)
(-2.19933e-09 0.0053257 7.42083e-14)
(-2.20335e-09 0.00533457 1.34972e-13)
(-2.20822e-09 0.00534425 1.37045e-13)
(-2.21305e-09 0.00535394 1.35045e-13)
(-2.21711e-09 0.00536281 7.43087e-14)
(-2.21534e-09 0.00536471 7.41898e-14)
(-2.21941e-09 0.00537358 1.34991e-13)
(-2.22422e-09 0.00538326 1.37006e-13)
(-2.22913e-09 0.00539295 1.35084e-13)
(-2.23309e-09 0.00540182 7.42482e-14)
(-2.23144e-09 0.00540371 7.42602e-14)
(-2.23537e-09 0.00541258 1.34895e-13)
(-2.24035e-09 0.00542227 1.37114e-13)
(-2.24505e-09 0.00543196 1.34939e-13)
(-2.24927e-09 0.00544083 7.44169e-14)
(-2.2473e-09 0.00544272 7.40474e-14)
(-2.25162e-09 0.00545159 1.35148e-13)
(-2.25613e-09 0.00546128 1.36796e-13)
(-2.2614e-09 0.00547097 1.35315e-13)
(-2.26492e-09 0.00547984 7.39509e-14)
(-2.26381e-09 0.00548173 7.46099e-14)
(-2.26709e-09 0.0054906 1.34484e-13)
(-2.27286e-09 0.00550029 1.3819e-13)
(-2.27667e-09 0.00551004 1.38245e-13)
(-2.28244e-09 0.00551973 1.346e-13)
(-2.28572e-09 0.0055286 7.47274e-14)
(-2.2846e-09 0.00553049 7.388e-14)
(-2.28812e-09 0.00553936 1.35281e-13)
(-2.29339e-09 0.00554905 1.36828e-13)
(-2.29791e-09 0.00555874 1.35268e-13)
(-2.30222e-09 0.00556761 7.41467e-14)
(-2.30025e-09 0.0055695 7.43528e-14)
(-2.30447e-09 0.00557837 1.34883e-13)
(-2.30917e-09 0.00558806 1.37147e-13)
(-2.31415e-09 0.00559775 1.34995e-13)
(-2.31808e-09 0.00560662 7.43653e-14)
(-2.31643e-09 0.00560851 7.41672e-14)
(-2.32039e-09 0.00561738 1.3503e-13)
(-2.3253e-09 0.00562707 1.37017e-13)
(-2.33011e-09 0.00563676 1.35093e-13)
(-2.33418e-09 0.00564563 7.42764e-14)
(-2.33241e-09 0.00564752 7.42363e-14)
(-2.33647e-09 0.00565639 1.34966e-13)
(-2.34131e-09 0.00566608 1.37062e-13)
(-2.34617e-09 0.00567577 1.35046e-13)
(-2.3502e-09 0.00568464 7.43097e-14)
(-2.34847e-09 0.00568653 7.42025e-14)
(-2.35249e-09 0.0056954 1.34989e-13)
(-2.35735e-09 0.00570509 1.37032e-13)
(-2.36221e-09 0.00571478 1.35064e-13)
(-2.36623e-09 0.00572364 7.4284e-14)
(-2.3645e-09 0.00572554 7.42229e-14)
(-2.36852e-09 0.00573441 1.34961e-13)
(-2.37339e-09 0.0057441 1.37053e-13)
(-2.37823e-09 0.00575378 1.35031e-13)
(-2.38228e-09 0.00576265 7.43127e-14)
(-2.38052e-09 0.00576455 7.41843e-14)
(-2.38459e-09 0.00577342 1.34999e-13)
(-2.3894e-09 0.00578311 1.36998e-13)
(-2.3943e-09 0.00579279 1.35086e-13)
(-2.39827e-09 0.00580166 7.42383e-14)
(-2.39662e-09 0.00580356 7.4268e-14)
(-2.40055e-09 0.00581243 1.34891e-13)
(-2.40552e-09 0.00582212 1.37118e-13)
(-2.41023e-09 0.0058318 1.3493e-13)
(-2.41445e-09 0.00584067 7.44185e-14)
(-2.41248e-09 0.00584257 7.40445e-14)
(-2.41679e-09 0.00585144 1.35154e-13)
(-2.4213e-09 0.00586113 1.3679e-13)
(-2.42658e-09 0.00587081 1.35317e-13)
(-2.4301e-09 0.00587968 7.39422e-14)
(-2.42898e-09 0.00588158 7.46175e-14)
(-2.43226e-09 0.00589045 1.34481e-13)
(-2.43803e-09 0.00590014 1.38194e-13)
(-2.44184e-09 0.00590988 1.38236e-13)
(-2.44761e-09 0.00591957 1.34599e-13)
(-2.45089e-09 0.00592844 7.47172e-14)
(-2.44977e-09 0.00593034 7.38861e-14)
(-2.4533e-09 0.00593921 1.35275e-13)
(-2.45857e-09 0.0059489 1.36829e-13)
(-2.46308e-09 0.00595858 1.35257e-13)
(-2.4674e-09 0.00596745 7.41473e-14)
(-2.46543e-09 0.00596935 7.43483e-14)
(-2.46965e-09 0.00597822 1.34888e-13)
(-2.47435e-09 0.0059879 1.37138e-13)
(-2.47933e-09 0.00599759 1.34995e-13)
(-2.48326e-09 0.00600646 7.43549e-14)
(-2.4816e-09 0.00600836 7.41745e-14)
(-2.48557e-09 0.00601723 1.35023e-13)