/*--------------------------------*- C++ -*----------------------------------*\
| =========                 |                                                 |
| \\      /  F ield         | OpenFOAM: The Open Source CFD Toolbox           |
|  \\    /   O peration     | Version:  2206                                  |
|   \\  /    A nd           | Website:  www.openfoam.com                      |
|    \\/     M anipulation  |                                                 |
\*---------------------------------------------------------------------------*/
FoamFile
{
    version     2.0;
    format      ascii;
    arch        "LSB;label=32;scalar=64";
    class       volScalarField;
    location    "350";
    object      p;
}
// * * * * * * * * * * * * * * * * * * * * * * * * * * * * * * * * * * * * * //

dimensions      [0 2 -2 0 0 0 0];

internalField   nonuniform List<scalar> 
100000
(
-1.33356e-10
8.79455e-09
1.17227e-08
2.19085e-08
3.4251e-08
4.80968e-08
5.64041e-08
7.31353e-08
8.75101e-08
1.08956e-07
1.283e-07
1.47241e-07
1.71198e-07
1.95611e-07
2.24922e-07
2.54291e-07
2.81172e-07
3.15288e-07
3.47649e-07
3.87351e-07
4.24438e-07
4.62102e-07
5.03561e-07
5.47272e-07
5.9375e-07
6.43515e-07
6.94485e-07
7.42278e-07
7.97706e-07
8.514e-07
9.12115e-07
9.70942e-07
1.02917e-06
1.09292e-06
1.15668e-06
1.22603e-06
1.29466e-06
1.36174e-06
1.43515e-06
1.50789e-06
1.58679e-06
1.6645e-06
1.74107e-06
1.82362e-06
1.90579e-06
1.99389e-06
2.08099e-06
2.16678e-06
2.25871e-06
2.35012e-06
2.44759e-06
2.54393e-06
2.63911e-06
2.74028e-06
2.84108e-06
2.94778e-06
3.05352e-06
3.1579e-06
3.26852e-06
3.37848e-06
3.49468e-06
3.60952e-06
3.72347e-06
3.8431e-06
3.96274e-06
4.08783e-06
4.21251e-06
4.33516e-06
4.46485e-06
4.59291e-06
4.72839e-06
4.8611e-06
4.99462e-06
5.13179e-06
5.27139e-06
5.41361e-06
5.5593e-06
5.70601e-06
5.84974e-06
6.00102e-06
6.15061e-06
6.30724e-06
6.46193e-06
6.6161e-06
6.77577e-06
6.93546e-06
7.10078e-06
7.26532e-06
7.42838e-06
7.59774e-06
7.76645e-06
7.94133e-06
8.115e-06
8.28755e-06
8.4661e-06
8.64424e-06
8.82838e-06
9.01141e-06
9.19326e-06
9.38115e-06
9.56862e-06
9.76206e-06
9.95447e-06
1.01456e-05
1.03429e-05
1.05396e-05
1.07425e-05
1.0944e-05
1.11447e-05
1.1351e-05
1.15574e-05
1.17692e-05
1.19806e-05
1.219e-05
1.24064e-05
1.26212e-05
1.28434e-05
1.30628e-05
1.32831e-05
1.3507e-05
1.37333e-05
1.39622e-05
1.41947e-05
1.44281e-05
1.46586e-05
1.48966e-05
1.51329e-05
1.53763e-05
1.56177e-05
1.58587e-05
1.61051e-05
1.63515e-05
1.66036e-05
1.68548e-05
1.71046e-05
1.73608e-05
1.76162e-05
1.78779e-05
1.81382e-05
1.83976e-05
1.86628e-05
1.89278e-05
1.91986e-05
1.94684e-05
1.9737e-05
2.00117e-05
2.02859e-05
2.05661e-05
2.08452e-05
2.11232e-05
2.14071e-05
2.16907e-05
2.19802e-05
2.22687e-05
2.25559e-05
2.28493e-05
2.3142e-05
2.3441e-05
2.37386e-05
2.40354e-05
2.43378e-05
2.46403e-05
2.49482e-05
2.52557e-05
2.55611e-05
2.58736e-05
2.61845e-05
2.65028e-05
2.68183e-05
2.71347e-05
2.74547e-05
2.77771e-05
2.81021e-05
2.84307e-05
2.87602e-05
2.90868e-05
2.94209e-05
2.97533e-05
3.00928e-05
3.04303e-05
3.07673e-05
3.11098e-05
3.14523e-05
3.18005e-05
3.21478e-05
3.24938e-05
3.28459e-05
3.31975e-05
3.35552e-05
3.39117e-05
3.42671e-05
3.46285e-05
3.49895e-05
3.53565e-05
3.57224e-05
3.60871e-05
3.64578e-05
3.68282e-05
3.72045e-05
3.75797e-05
3.79537e-05
3.83338e-05
3.87134e-05
3.90991e-05
3.94835e-05
3.98671e-05
4.02563e-05
4.06455e-05
4.10402e-05
4.14344e-05
4.18266e-05
4.22259e-05
4.26236e-05
4.30287e-05
4.34309e-05
4.38341e-05
4.42408e-05
4.465e-05
4.50618e-05
4.54771e-05
4.58934e-05
4.63068e-05
4.67276e-05
4.71468e-05
4.75731e-05
4.79974e-05
4.84212e-05
4.88504e-05
4.92797e-05
4.97147e-05
5.01488e-05
5.05815e-05
5.10205e-05
5.14588e-05
5.19033e-05
5.23466e-05
5.27888e-05
5.32369e-05
5.36847e-05
5.41385e-05
5.45911e-05
5.50426e-05
5.55001e-05
5.59572e-05
5.64203e-05
5.68823e-05
5.73431e-05
5.78099e-05
5.82764e-05
5.87488e-05
5.92201e-05
5.96902e-05
6.01665e-05
6.06421e-05
6.1124e-05
6.16045e-05
6.20841e-05
6.25694e-05
6.30548e-05
6.35456e-05
6.40359e-05
6.45242e-05
6.50196e-05
6.55134e-05
6.60146e-05
6.6513e-05
6.70122e-05
6.7515e-05
6.80204e-05
6.85283e-05
6.90397e-05
6.95521e-05
7.00616e-05
7.05785e-05
7.10939e-05
7.16162e-05
7.21366e-05
7.26565e-05
7.31819e-05
7.37073e-05
7.42383e-05
7.47686e-05
7.52974e-05
7.58325e-05
7.63669e-05
7.69075e-05
7.74469e-05
7.79852e-05
7.85295e-05
7.90733e-05
7.96232e-05
8.0172e-05
8.07196e-05
8.12732e-05
8.18264e-05
8.23856e-05
8.29437e-05
8.35006e-05
8.40636e-05
8.4626e-05
8.51947e-05
8.5762e-05
8.63284e-05
8.69005e-05
8.74726e-05
8.80502e-05
8.86273e-05
8.92024e-05
8.97846e-05
9.03651e-05
9.09531e-05
9.15382e-05
9.21243e-05
9.27139e-05
9.3306e-05
9.39007e-05
9.44989e-05
9.50981e-05
9.56943e-05
9.62981e-05
9.69002e-05
9.75093e-05
9.81165e-05
9.87231e-05
9.93353e-05
9.99475e-05
0.000100565
0.000101182
0.000101798
0.00010242
0.000103041
0.000103668
0.000104295
0.00010492
0.000105551
0.000106181
0.000106818
0.000107454
0.000108088
0.000108728
0.000109368
0.000110014
0.000110659
0.000111303
0.000111953
0.000112602
0.000113257
0.000113911
0.000114564
0.000115224
0.000115882
0.000116547
0.00011721
0.000117873
0.000118541
0.000119209
0.000119883
0.000120556
0.000121227
0.000121906
0.000122582
0.000123266
0.000123948
0.00012463
0.000125316
0.000126004
0.000126695
0.000127389
0.000128084
0.000128777
0.000129476
0.000130175
0.00013088
0.000131583
0.000132286
0.000132994
0.000133703
0.000134416
0.00013513
0.000135841
0.000136559
0.000137277
0.000138
0.000138722
0.000139444
0.000140171
0.000140898
0.00014163
0.000142362
0.000143092
0.000143829
0.000144565
0.000145307
0.000146048
0.000146788
0.000147534
0.000148279
0.000149031
0.000149781
0.00015053
0.000151285
0.00015204
0.000152801
0.000153561
0.000154319
0.000155084
0.000155847
0.000156618
0.000157386
0.000158155
0.000158928
0.000159703
0.00016048
0.000161261
0.000162043
0.000162822
0.000163609
0.000164394
0.000165186
0.000165976
0.000166766
0.000167561
0.000168356
0.000169157
0.000169957
0.000170755
0.00017156
0.000172364
0.000173174
0.000173983
0.000174791
0.000175605
0.000176419
0.000177238
0.000178057
0.000178874
0.000179697
0.00018052
0.000181349
0.000182177
0.000183003
0.000183836
0.000184668
0.000185506
0.000186344
0.000187179
0.000188021
0.000188863
0.000189711
0.000190557
0.000191402
0.000192253
0.000193105
0.000193961
0.000194817
0.000195671
0.000196533
0.000197392
0.000198259
0.000199123
0.000199988
0.000200857
0.000201728
0.000202602
0.000203479
0.000204357
0.000205232
0.000206115
0.000206996
0.000207884
0.000208771
0.000209656
0.000210547
0.000211439
0.000212335
0.000213231
0.000214126
0.000215027
0.000215927
0.000216834
0.000217739
0.000218643
0.000219553
0.000220463
0.000221378
0.000222293
0.000223206
0.000224126
0.000225045
0.00022597
0.000226894
0.000227816
0.000228745
0.000229673
0.000230608
0.000231541
0.000232473
0.000233411
0.000234349
0.000235292
0.000236235
0.000237176
0.000238124
0.00023907
0.000240024
0.000240975
0.000241927
0.000242882
0.00024384
0.000244801
0.000245765
0.000246729
0.000247692
0.000248661
0.000249629
0.000250604
0.000251577
0.000252549
0.000253527
0.000254505
0.000255489
0.000256472
0.000257453
0.000258441
0.000259428
0.000260421
0.000261413
0.000262404
0.000263401
0.000264397
0.0002654
0.000266401
0.000267401
0.000268407
0.000269413
0.000270425
0.000271435
0.000272445
0.00027346
0.000274476
0.000275497
0.000276517
0.000277536
0.00027856
0.000279585
0.000280615
0.000281645
0.000282673
0.000283707
0.000284741
0.00028578
0.000286819
0.000287856
0.000288901
0.000289943
0.000290993
0.00029204
0.000293088
0.000294139
0.000295193
0.00029625
0.00029731
0.000298371
0.000299429
0.000300495
0.000301559
0.00030263
0.000303699
0.000304768
0.000305842
0.000306916
0.000307996
0.000309075
0.000310152
0.000311236
0.000312319
0.000313408
0.000314496
0.000315583
0.000316676
0.000317769
0.000318867
0.000319965
0.000321061
0.000322163
0.000323265
0.000324373
0.00032548
0.000326586
0.000327697
0.000328808
0.000329926
0.000331042
0.000332157
0.000333278
0.000334398
0.000335525
0.000336651
0.000337774
0.000338905
0.000340034
0.000341171
0.000342305
0.00034344
0.000344578
0.000345719
0.000346862
0.000348009
0.000349157
0.000350302
0.000351454
0.000352605
0.000353763
0.000354919
0.000356074
0.000357235
0.000358396
0.000359562
0.000360728
0.000361892
0.000363063
0.000364233
0.000365409
0.000366584
0.000367758
0.000368937
0.000370117
0.000371302
0.000372486
0.000373669
0.000374858
0.000376047
0.000377242
0.000378435
0.000379628
0.000380826
0.000382024
0.000383228
0.000384431
0.000385633
0.000386841
0.000388048
0.000389261
0.000390473
0.000391685
0.000392902
0.000394119
0.000395341
0.000396563
0.000397783
0.00039901
0.000400235
0.000401468
0.000402698
0.000403929
0.000405163
0.0004064
0.000407639
0.000408883
0.000410126
0.000411368
0.000412616
0.000413863
0.000415117
0.000416369
0.00041762
0.000418877
0.000420134
0.000421397
0.000422659
0.000423919
0.000425186
0.000426452
0.000427724
0.000428995
0.000430265
0.000431541
0.000432816
0.000434098
0.000435378
0.000436657
0.000437943
0.000439227
0.000440518
0.000441808
0.000443096
0.000444391
0.000445685
0.000446985
0.000448284
0.000449582
0.000450886
0.000452189
0.000453499
0.000454807
0.000456114
0.000457428
0.00045874
0.00046006
0.000461376
0.000462694
0.000464015
0.000465339
0.000466665
0.000467995
0.000469326
0.000470654
0.000471989
0.000473323
0.000474663
0.000476002
0.00047734
0.000478684
0.000480028
0.000481377
0.000482726
0.000484073
0.000485427
0.000486779
0.000488138
0.000489496
0.000490853
0.000492215
0.000493578
0.000494946
0.000496313
0.000497679
0.000499051
0.000500423
0.0005018
0.000503177
0.000504552
0.000505933
0.000507314
0.000508701
0.000510087
0.000511472
0.000512862
0.000514252
0.000515649
0.000517044
0.000518438
0.000519838
0.000521237
0.000522643
0.000524048
0.00052545
0.00052686
0.000528269
0.000529684
0.000531097
0.000532511
0.000533928
0.000535348
0.00053677
0.000538196
0.000539623
0.000541047
0.000542479
0.000543908
0.000545345
0.00054678
0.000548215
0.000549654
0.000551094
0.00055254
0.000553985
0.000555428
0.000556877
0.000558326
0.000559781
0.000561235
0.000562688
0.000564147
0.000565605
0.00056707
0.000568533
0.000569995
0.000571463
0.000572931
0.000574404
0.000575877
0.000577348
0.000578826
0.000580303
0.000581786
0.000583268
0.000584749
0.000586235
0.000587722
0.000589214
0.000590706
0.000592195
0.000593692
0.000595187
0.000596689
0.000598189
0.00059969
0.000601194
0.0006027
0.000604209
0.000605722
0.000607236
0.000608747
0.000610265
0.000611781
0.000613305
0.000614827
0.000616348
0.000617875
0.000619401
0.000620934
0.000622465
0.000623995
0.000625532
0.000627067
0.000628609
0.00063015
0.000631689
0.000633235
0.00063478
0.000636331
0.000637881
0.00063943
0.000640985
0.000642539
0.0006441
0.000645659
0.000647218
0.000648782
0.000650346
0.000651915
0.000653484
0.000655052
0.000656625
0.000658198
0.000659778
0.000661355
0.000662932
0.000664515
0.000666098
0.000667686
0.000669274
0.00067086
0.000672452
0.000674043
0.000675642
0.000677238
0.000678834
0.000680435
0.000682037
0.000683643
0.000685252
0.000686861
0.000688468
0.000690083
0.000691695
0.000693315
0.000694933
0.00069655
0.000698173
0.000699796
0.000701424
0.000703052
0.000704678
0.00070631
0.000707942
0.00070958
0.000711217
0.000712853
0.000714494
0.000716136
0.000717783
0.000719429
0.000721074
0.000722725
0.000724376
0.000726032
0.000727688
0.000729342
0.000731002
0.000732662
0.000734328
0.000735993
0.000737657
0.000739326
0.000740996
0.000742671
0.000744345
0.000746018
0.000747697
0.000749375
0.000751061
0.000752743
0.000754427
0.000756114
0.000757803
0.000759495
0.000761191
0.000762887
0.000764581
0.000766282
0.000767982
0.000769688
0.000771393
0.000773097
0.000774806
0.000776516
0.000778231
0.000779946
0.000781659
0.000783378
0.000785097
0.000786821
0.000788545
0.000790267
0.000791996
0.000793724
0.000795458
0.000797191
0.000798923
0.00080066
0.000802398
0.000804141
0.000805883
0.000807625
0.000809372
0.000811118
0.000812871
0.000814623
0.000816373
0.00081813
0.000819886
0.000821648
0.000823409
0.000825169
0.000826934
0.0008287
0.000830471
0.000832241
0.00083401
0.000835786
0.00083756
0.000839341
0.00084112
0.0008429
0.000844683
0.000846468
0.000848256
0.000850048
0.000851841
0.000853631
0.000855428
0.000857224
0.000859026
0.000860827
0.000862627
0.000864433
0.000866238
0.00086805
0.00086986
0.000871669
0.000873485
0.0008753
0.00087712
0.00087894
0.000880759
0.000882583
0.000884407
0.000886238
0.000888067
0.000889895
0.000891728
0.000893562
0.000895401
0.00089724
0.000899077
0.00090092
0.000902763
0.000904612
0.00090646
0.000908306
0.000910159
0.000912011
0.000913869
0.000915726
0.000917582
0.000919444
0.000921305
0.000923173
0.000925039
0.000926905
0.000928775
0.000930648
0.000932523
0.000934401
0.00093628
0.000938157
0.000940041
0.000941923
0.000943813
0.0009457
0.000947587
0.00094948
0.000951372
0.00095327
0.000955168
0.000957064
0.000958966
0.000960867
0.000962775
0.000964681
0.000966587
0.000968498
0.000970409
0.000972326
0.000974242
0.000976157
0.000978077
0.000979998
0.000981924
0.000983849
0.000985773
0.000987703
0.000989633
0.000991568
0.000993503
0.000995436
0.000997376
0.000999314
0.00100126
0.0010032
0.00100515
0.00100709
0.00100904
0.001011
0.00101295
0.0010149
0.00101686
0.00101882
0.00102078
0.00102274
0.00102471
0.00102667
0.00102864
0.00103061
0.00103259
0.00103456
0.00103653
0.00103851
0.00104049
0.00104248
0.00104446
0.00104645
0.00104843
0.00105042
0.00105242
0.00105441
0.0010564
0.0010584
0.0010604
0.0010624
0.0010644
0.00106641
0.00106841
0.00107042
0.00107243
0.00107445
0.00107646
0.00107847
0.00108049
0.00108251
0.00108453
0.00108655
0.00108858
0.00109061
0.00109264
0.00109467
0.0010967
0.00109873
0.00110077
0.00110281
0.00110485
0.00110689
0.00110893
0.00111098
0.00111303
0.00111508
0.00111713
0.00111918
0.00112123
0.00112329
0.00112535
0.00112742
0.00112947
0.00113154
0.00113361
0.00113568
0.00113775
0.00113982
0.00114189
0.00114397
0.00114605
0.00114813
0.00115021
0.0011523
0.00115438
0.00115647
0.00115856
0.00116065
0.00116274
0.00116484
0.00116694
0.00116903
0.00117113
0.00117324
0.00117534
0.00117745
0.00117956
0.00118166
0.00118378
0.00118589
0.00118801
0.00119012
0.00119224
0.00119436
0.00119648
0.00119861
0.00120074
0.00120287
0.001205
0.00120713
0.00120926
0.0012114
0.00121354
0.00121568
0.00121782
0.00121996
0.00122211
0.00122425
0.0012264
0.00122855
0.00123071
0.00123287
0.00123502
0.00123718
0.00123934
0.0012415
0.00124367
0.00124584
0.00124801
0.00125018
0.00125235
0.00125453
0.0012567
0.00125888
0.00126106
0.00126324
0.00126543
0.00126761
0.0012698
0.00127199
0.00127418
0.00127637
0.00127857
0.00128076
0.00128296
0.00128516
0.00128736
0.00128957
0.00129177
0.00129398
0.00129619
0.0012984
0.00130062
0.00130283
0.00130505
0.00130727
0.00130949
0.00131171
0.00131393
0.00131616
0.00131839
0.00132062
0.00132285
0.00132509
0.00132732
0.00132956
0.0013318
0.00133405
0.00133629
0.00133853
0.00134078
0.00134303
0.00134529
0.00134754
0.00134979
0.00135205
0.00135431
0.00135657
0.00135884
0.0013611
0.00136337
0.00136563
0.00136791
0.00137018
0.00137245
0.00137473
0.001377
0.00137929
0.00138157
0.00138385
0.00138614
0.00138842
0.00139071
0.001393
0.00139529
0.00139759
0.00139989
0.00140219
0.00140449
0.00140679
0.00140909
0.0014114
0.00141371
0.00141602
0.00141833
0.00142064
0.00142295
0.00142527
0.00142759
0.00142991
0.00143224
0.00143456
0.00143689
0.00143922
0.00144154
0.00144388
0.00144621
0.00144855
0.00145089
0.00145323
0.00145557
0.00145791
0.00146026
0.00146261
0.00146496
0.00146731
0.00146966
0.00147202
0.00147438
0.00147674
0.00147909
0.00148146
0.00148382
0.00148619
0.00148856
0.00149093
0.0014933
0.00149567
0.00149805
0.00150043
0.00150281
0.00150519
0.00150757
0.00150996
0.00151235
0.00151473
0.00151712
0.00151951
0.00152191
0.00152431
0.0015267
0.00152911
0.00153151
0.00153391
0.00153632
0.00153872
0.00154113
0.00154354
0.00154596
0.00154837
0.00155079
0.00155321
0.00155563
0.00155805
0.00156048
0.00156291
0.00156533
0.00156777
0.0015702
0.00157264
0.00157507
0.00157751
0.00157995
0.00158239
0.00158484
0.00158728
0.00158973
0.00159218
0.00159463
0.00159709
0.00159954
0.00160199
0.00160445
0.00160691
0.00160938
0.00161184
0.00161431
0.00161678
0.00161925
0.00162172
0.0016242
0.00162667
0.00162915
0.00163162
0.00163411
0.00163659
0.00163907
0.00164156
0.00164405
0.00164654
0.00164904
0.00165153
0.00165402
0.00165652
0.00165902
0.00166153
0.00166403
0.00166653
0.00166904
0.00167155
0.00167406
0.00167657
0.00167909
0.00168161
0.00168413
0.00168665
0.00168917
0.0016917
0.00169422
0.00169675
0.00169929
0.00170182
0.00170435
0.00170689
0.00170942
0.00171197
0.00171451
0.00171705
0.0017196
0.00172214
0.0017247
0.00172725
0.0017298
0.00173235
0.00173491
0.00173747
0.00174003
0.00174259
0.00174516
0.00174772
0.00175029
0.00175286
0.00175543
0.00175801
0.00176058
0.00176316
0.00176574
0.00176832
0.0017709
0.00177349
0.00177608
0.00177867
0.00178125
0.00178385
0.00178644
0.00178904
0.00179164
0.00179423
0.00179684
0.00179944
0.00180205
0.00180466
0.00180727
0.00180988
0.00181249
0.00181511
0.00181773
0.00182035
0.00182296
0.00182559
0.00182821
0.00183084
0.00183347
0.0018361
0.00183873
0.00184137
0.00184401
0.00184664
0.00184928
0.00185192
0.00185457
0.00185721
0.00185986
0.00186251
0.00186516
0.00186781
0.00187047
0.00187313
0.00187578
0.00187844
0.00188111
0.00188377
0.00188644
0.0018891
0.00189177
0.00189445
0.00189712
0.0018998
0.00190247
0.00190515
0.00190783
0.00191052
0.0019132
0.00191589
0.00191858
0.00192126
0.00192396
0.00192665
0.00192935
0.00193205
0.00193475
0.00193745
0.00194015
0.00194286
0.00194557
0.00194828
0.00195099
0.0019537
0.00195642
0.00195913
0.00196185
0.00196458
0.0019673
0.00197003
0.00197275
0.00197548
0.00197821
0.00198094
0.00198368
0.00198641
0.00198915
0.00199189
0.00199463
0.00199738
0.00200012
0.00200287
0.00200562
0.00200837
0.00201112
0.00201387
0.00201663
0.00201939
0.00202215
0.00202492
0.00202768
0.00203044
0.00203321
0.00203598
0.00203875
0.00204152
0.0020443
0.00204708
0.00204986
0.00205264
0.00205542
0.00205821
0.00206099
0.00206378
0.00206657
0.00206937
0.00207216
0.00207496
0.00207776
0.00208056
0.00208336
0.00208616
0.00208897
0.00209178
0.00209459
0.0020974
0.00210021
0.00210303
0.00210584
0.00210867
0.00211149
0.00211431
0.00211713
0.00211996
0.00212279
0.00212562
0.00212845
0.00213128
0.00213412
0.00213696
0.0021398
0.00214264
0.00214548
0.00214833
0.00215118
0.00215403
0.00215687
0.00215973
0.00216258
0.00216544
0.0021683
0.00217116
0.00217402
0.00217688
0.00217975
0.00218262
0.00218549
0.00218836
0.00219123
0.00219411
0.00219698
0.00219986
0.00220274
0.00220563
0.00220851
0.0022114
0.00221429
0.00221718
0.00222007
0.00222297
0.00222587
0.00222876
0.00223166
0.00223456
0.00223747
0.00224038
0.00224328
0.00224619
0.0022491
0.00225202
0.00225493
0.00225785
0.00226077
0.00226369
0.00226661
0.00226954
0.00227246
0.00227539
0.00227832
0.00228125
0.00228419
0.00228712
0.00229006
0.002293
0.00229594
0.00229889
0.00230183
0.00230478
0.00230773
0.00231067
0.00231363
0.00231658
0.00231954
0.0023225
0.00232546
0.00232842
0.00233139
0.00233435
0.00233732
0.00234028
0.00234326
0.00234623
0.0023492
0.00235218
0.00235516
0.00235814
0.00236113
0.00236411
0.0023671
0.00237009
0.00237308
0.00237607
0.00237907
0.00238206
0.00238506
0.00238806
0.00239106
0.00239407
0.00239707
0.00240008
0.00240309
0.0024061
0.00240912
0.00241213
0.00241515
0.00241816
0.00242119
0.00242421
0.00242723
0.00243026
0.00243329
0.00243632
0.00243935
0.00244238
0.00244542
0.00244845
0.0024515
0.00245454
0.00245758
0.00246062
0.00246367
0.00246672
0.00246977
0.00247282
0.00247588
0.00247893
0.00248199
0.00248505
0.00248811
0.00249118
0.00249424
0.00249731
0.00250038
0.00250346
0.00250653
0.0025096
0.00251268
0.00251576
0.00251884
0.00252192
0.00252501
0.0025281
0.00253119
0.00253428
0.00253737
0.00254046
0.00254356
0.00254666
0.00254976
0.00255286
0.00255596
0.00255907
0.00256218
0.00256529
0.0025684
0.00257151
0.00257462
0.00257774
0.00258086
0.00258398
0.0025871
0.00259023
0.00259336
0.00259648
0.00259961
0.00260274
0.00260588
0.00260902
0.00261215
0.00261529
0.00261843
0.00262157
0.00262472
0.00262787
0.00263101
0.00263416
0.00263731
0.00264047
0.00264363
0.00264678
0.00264994
0.00265311
0.00265627
0.00265944
0.00266261
0.00266577
0.00266895
0.00267212
0.0026753
0.00267848
0.00268165
0.00268483
0.00268802
0.0026912
0.00269439
0.00269758
0.00270077
0.00270396
0.00270716
0.00271035
0.00271355
0.00271675
0.00271995
0.00272316
0.00272636
0.00272957
0.00273278
0.00273599
0.0027392
0.00274242
0.00274563
0.00274885
0.00275207
0.0027553
0.00275852
0.00276174
0.00276497
0.0027682
0.00277143
0.00277467
0.0027779
0.00278114
0.00278438
0.00278762
0.00279086
0.00279411
0.00279735
0.0028006
0.00280385
0.00280711
0.00281036
0.00281362
0.00281688
0.00282014
0.0028234
0.00282667
0.00282993
0.0028332
0.00283647
0.00283974
0.00284301
0.00284629
0.00284957
0.00285284
0.00285613
0.00285941
0.00286269
0.00286598
0.00286927
0.00287256
0.00287585
0.00287914
0.00288244
0.00288574
0.00288904
0.00289234
0.00289564
0.00289895
0.00290226
0.00290557
0.00290888
0.00291219
0.0029155
0.00291882
0.00292214
0.00292546
0.00292878
0.00293211
0.00293543
0.00293876
0.00294209
0.00294542
0.00294875
0.00295209
0.00295543
0.00295877
0.0029621
0.00296545
0.00296879
0.00297214
0.00297549
0.00297884
0.00298219
0.00298555
0.0029889
0.00299227
0.00299563
0.00299898
0.00300235
0.00300571
0.00300909
0.00301246
0.00301582
0.0030192
0.00302257
0.00302595
0.00302933
0.00303271
0.00303609
0.00303948
0.00304287
0.00304626
0.00304964
0.00305304
0.00305643
0.00305983
0.00306323
0.00306662
0.00307002
0.00307343
0.00307683
0.00308024
0.00308365
0.00308706
0.00309047
0.00309389
0.00309731
0.00310072
0.00310414
0.00310756
0.00311099
0.00311441
0.00311784
0.00312127
0.0031247
0.00312814
0.00313157
0.00313501
0.00313845
0.00314189
0.00314533
0.00314878
0.00315223
0.00315567
0.00315913
0.00316258
0.00316604
0.00316949
0.00317295
0.00317641
0.00317987
0.00318334
0.0031868
0.00319027
0.00319374
0.00319721
0.00320068
0.00320416
0.00320763
0.00321111
0.00321459
0.00321808
0.00322156
0.00322505
0.00322854
0.00323203
0.00323552
0.00323901
0.00324251
0.00324601
0.0032495
0.00325301
0.00325651
0.00326001
0.00326352
0.00326703
0.00327054
0.00327406
0.00327757
0.00328108
0.0032846
0.00328812
0.00329165
0.00329517
0.00329869
0.00330222
0.00330575
0.00330928
0.00331282
0.00331635
0.00331989
0.00332343
0.00332697
0.00333052
0.00333406
0.00333761
0.00334115
0.00334471
0.00334826
0.00335181
0.00335537
0.00335893
0.00336249
0.00336605
0.00336961
0.00337318
0.00337675
0.00338032
0.00338389
0.00338746
0.00339104
0.00339461
0.00339819
0.00340177
0.00340535
0.00340894
0.00341252
0.00341612
0.00341971
0.00342329
0.00342689
0.00343048
0.00343408
0.00343768
0.00344128
0.00344489
0.00344849
0.0034521
0.00345571
0.00345932
0.00346293
0.00346654
0.00347016
0.00347378
0.0034774
0.00348102
0.00348465
0.00348827
0.0034919
0.00349553
0.00349916
0.0035028
0.00350643
0.00351007
0.00351371
0.00351735
0.00352099
0.00352464
0.00352829
0.00353194
0.00353558
0.00353924
0.00354289
0.00354655
0.00355021
0.00355387
0.00355753
0.00356119
0.00356486
0.00356853
0.00357219
0.00357587
0.00357954
0.00358322
0.00358689
0.00359057
0.00359425
0.00359793
0.00360162
0.0036053
0.00360899
0.00361268
0.00361637
0.00362007
0.00362376
0.00362746
0.00363116
0.00363486
0.00363856
0.00364227
0.00364597
0.00364968
0.00365339
0.0036571
0.00366082
0.00366454
0.00366825
0.00367198
0.0036757
0.00367942
0.00368315
0.00368687
0.00369061
0.00369434
0.00369807
0.00370181
0.00370554
0.00370928
0.00371302
0.00371677
0.00372051
0.00372426
0.00372801
0.00373176
0.00373551
0.00373927
0.00374302
0.00374678
0.00375054
0.0037543
0.00375807
0.00376183
0.0037656
0.00376936
0.00377314
0.00377691
0.00378068
0.00378446
0.00378824
0.00379202
0.0037958
0.00379958
0.00380337
0.00380716
0.00381095
0.00381474
0.00381853
0.00382233
0.00382613
0.00382993
0.00383373
0.00383753
0.00384134
0.00384514
0.00384895
0.00385277
0.00385658
0.00386039
0.00386421
0.00386803
0.00387185
0.00387567
0.00387949
0.00388332
0.00388715
0.00389098
0.00389481
0.00389864
0.00390248
0.00390632
0.00391016
0.003914
0.00391784
0.00392168
0.00392553
0.00392938
0.00393323
0.00393708
0.00394094
0.00394479
0.00394865
0.00395251
0.00395637
0.00396023
0.0039641
0.00396797
0.00397184
0.0039757
0.00397958
0.00398345
0.00398733
0.00399121
0.00399509
0.00399897
0.00400285
0.00400674
0.00401063
0.00401452
0.00401841
0.0040223
0.0040262
0.0040301
0.004034
0.0040379
0.0040418
0.0040457
0.00404962
0.00405352
0.00405743
0.00406135
0.00406526
0.00406918
0.0040731
0.00407701
0.00408094
0.00408486
0.00408879
0.00409272
0.00409664
0.00410058
0.00410451
0.00410845
0.00411238
0.00411632
0.00412026
0.0041242
0.00412815
0.0041321
0.00413604
0.00413999
0.00414395
0.0041479
0.00415186
0.00415581
0.00415977
0.00416373
0.0041677
0.00417167
0.00417563
0.0041796
0.00418357
0.00418754
0.00419152
0.00419549
0.00419947
0.00420345
0.00420743
0.00421142
0.00421541
0.00421939
0.00422338
0.00422737
0.00423137
0.00423537
0.00423936
0.00424336
0.00424736
0.00425137
0.00425538
0.00425938
0.00426339
0.0042674
0.00427141
0.00427543
0.00427944
0.00428346
0.00428748
0.00429151
0.00429553
0.00429955
0.00430358
0.00430761
0.00431164
0.00431568
0.00431971
0.00432375
0.00432779
0.00433183
0.00433587
0.00433991
0.00434396
0.00434801
0.00435206
0.00435611
0.00436016
0.00436422
0.00436828
0.00437234
0.0043764
0.00438046
0.00438453
0.00438859
0.00439266
0.00439673
0.0044008
0.00440488
0.00440895
0.00441303
0.00441712
0.0044212
0.00442528
0.00442937
0.00443345
0.00443755
0.00444164
0.00444573
0.00444983
0.00445392
0.00445803
0.00446213
0.00446623
0.00447033
0.00447444
0.00447855
0.00448266
0.00448677
0.00449089
0.004495
0.00449912
0.00450324
0.00450736
0.00451149
0.00451561
0.00451974
0.00452387
0.004528
0.00453213
0.00453627
0.00454041
0.00454455
0.00454868
0.00455283
0.00455697
0.00456112
0.00456527
0.00456941
0.00457357
0.00457772
0.00458188
0.00458604
0.00459019
0.00459435
0.00459852
0.00460268
0.00460685
0.00461102
0.00461519
0.00461937
0.00462354
0.00462772
0.0046319
0.00463608
0.00464026
0.00464444
0.00464863
0.00465282
0.00465701
0.0046612
0.00466539
0.00466959
0.00467379
0.00467798
0.00468219
0.00468639
0.0046906
0.0046948
0.00469901
0.00470322
0.00470743
0.00471165
0.00471587
0.00472008
0.0047243
0.00472852
0.00473275
0.00473697
0.0047412
0.00474543
0.00474966
0.00475389
0.00475813
0.00476236
0.0047666
0.00477084
0.00477509
0.00477933
0.00478357
0.00478782
0.00479207
0.00479633
0.00480058
0.00480483
0.00480909
0.00481335
0.00481761
0.00482188
0.00482614
0.00483041
0.00483468
0.00483895
0.00484322
0.0048475
0.00485177
0.00485605
0.00486033
0.00486462
0.0048689
0.00487318
0.00487747
0.00488176
0.00488606
0.00489035
0.00489464
0.00489894
0.00490324
0.00490754
0.00491185
0.00491615
0.00492045
0.00492476
0.00492908
0.00493339
0.0049377
0.00494202
0.00494633
0.00495066
0.00495498
0.0049593
0.00496362
0.00496795
0.00497228
0.00497661
0.00498094
0.00498528
0.00498961
0.00499396
0.00499829
0.00500263
0.00500698
0.00501132
0.00501567
0.00502003
0.00502438
0.00502873
0.00503309
0.00503744
0.00504181
0.00504617
0.00505053
0.0050549
0.00505926
0.00506363
0.00506801
0.00507237
0.00507675
0.00508113
0.00508551
0.00508989
0.00509427
0.00509865
0.00510304
0.00510743
0.00511182
0.00511621
0.0051206
0.005125
0.0051294
0.00513379
0.00513819
0.0051426
0.005147
0.00515141
0.00515582
0.00516022
0.00516464
0.00516905
0.00517347
0.00517789
0.0051823
0.00518673
0.00519115
0.00519558
0.0052
0.00520443
0.00520886
0.00521329
0.00521773
0.00522217
0.0052266
0.00523104
0.00523548
0.00523993
0.00524438
0.00524883
0.00525327
0.00525773
0.00526218
0.00526664
0.0052711
0.00527555
0.00528002
0.00528448
0.00528895
0.00529341
0.00529788
0.00530235
0.00530682
0.0053113
0.00531578
0.00532025
0.00532473
0.00532922
0.0053337
0.00533819
0.00534267
0.00534716
0.00535165
0.00535615
0.00536065
0.00536514
0.00536964
0.00537414
0.00537864
0.00538315
0.00538765
0.00539216
0.00539667
0.00540119
0.0054057
0.00541021
0.00541473
0.00541925
0.00542377
0.0054283
0.00543282
0.00543735
0.00544187
0.00544641
0.00545094
0.00545548
0.00546001
0.00546455
0.00546909
0.00547364
0.00547818
0.00548273
0.00548727
0.00549182
0.00549638
0.00550093
0.00550549
0.00551004
0.0055146
0.00551917
0.00552373
0.00552829
0.00553286
0.00553743
0.005542
0.00554657
0.00555115
0.00555572
0.0055603
0.00556488
0.00556947
0.00557405
0.00557863
0.00558322
0.00558781
0.0055924
0.00559699
0.00560159
0.00560618
0.00561079
0.00561539
0.00561999
0.00562459
0.0056292
0.00563381
0.00563842
0.00564303
0.00564764
0.00565226
0.00565688
0.00566149
0.00566611
0.00567074
0.00567536
0.00567999
0.00568462
0.00568925
0.00569388
0.00569852
0.00570316
0.0057078
0.00571244
0.00571708
0.00572172
0.00572637
0.00573102
0.00573567
0.00574032
0.00574497
0.00574963
0.00575429
0.00575895
0.00576361
0.00576827
0.00577293
0.0057776
0.00578227
0.00578694
0.00579161
0.00579629
0.00580097
0.00580564
0.00581032
0.005815
0.00581969
0.00582437
0.00582906
0.00583375
0.00583844
0.00584313
0.00584783
0.00585253
0.00585722
0.00586192
0.00586662
0.00587133
0.00587604
0.00588074
0.00588545
0.00589017
0.00589488
0.0058996
0.00590432
0.00590903
0.00591376
0.00591848
0.00592321
0.00592794
0.00593266
0.00593739
0.00594213
0.00594686
0.0059516
0.00595634
0.00596108
0.00596582
0.00597057
0.00597531
0.00598006
0.00598481
0.00598956
0.00599432
0.00599907
0.00600383
0.00600859
0.00601335
0.00601811
0.00602288
0.00602764
0.00603241
0.00603718
0.00604196
0.00604673
0.0060515
0.00605628
0.00606106
0.00606584
0.00607063
0.00607541
0.0060802
0.00608499
0.00608978
0.00609457
0.00609937
0.00610416
0.00610896
0.00611376
0.00611857
0.00612337
0.00612818
0.00613299
0.0061378
0.00614261
0.00614743
0.00615224
0.00615706
0.00616188
0.0061667
0.00617153
0.00617635
0.00618118
0.006186
0.00619084
0.00619567
0.0062005
0.00620534
0.00621018
0.00621502
0.00621986
0.0062247
0.00622955
0.0062344
0.00623925
0.0062441
0.00624895
0.00625381