/*--------------------------------*- C++ -*----------------------------------*\
| =========                 |                                                 |
| \\      /  F ield         | OpenFOAM: The Open Source CFD Toolbox           |
|  \\    /   O peration     | Version:  2206                                  |
|   \\  /    A nd           | Website:  www.openfoam.com                      |
|    \\/     M anipulation  |                                                 |
\*---------------------------------------------------------------------------*/
FoamFile
{
    version     2.0;
    format      ascii;
    arch        "LSB;label=32;scalar=64";
    class       volVectorField;
    location    "350";
    object      U;
}
// * * * * * * * * * * * * * * * * * * * * * * * * * * * * * * * * * * * * * //

dimensions      [0 1 -1 0 0 0 0];

internalField   nonuniform List<vector> 
100000
(
(-4.78224e-12 6.45684e-06 6.81322e-13)
(-4.42735e-12 1.20345e-05 9.45049e-14)
(-7.58866e-12 2.1944e-05 1.47659e-13)
(-1.40747e-11 3.25868e-05 1.55444e-13)
(-1.77153e-11 4.22373e-05 8.80933e-14)
(-1.6785e-11 4.47009e-05 7.438e-14)
(-2.05135e-11 5.45717e-05 1.41447e-13)
(-2.6171e-11 6.53538e-05 1.47522e-13)
(-3.11468e-11 7.61181e-05 1.49066e-13)
(-3.57223e-11 8.58542e-05 8.39899e-14)
(-3.38126e-11 8.82525e-05 7.81761e-14)
(-3.82316e-11 9.80971e-05 1.42643e-13)
(-4.34538e-11 0.000108883 1.48251e-13)
(-4.86642e-11 0.000119657 1.47433e-13)
(-5.31398e-11 0.000129416 8.32198e-14)
(-5.11733e-11 0.000131803 7.85748e-14)
(-5.57952e-11 0.000141635 1.4396e-13)
(-6.06562e-11 0.000152421 1.47741e-13)
(-6.63941e-11 0.000163198 1.47391e-13)
(-7.01529e-11 0.000172969 8.20834e-14)
(-6.9097e-11 0.000175351 7.97053e-14)
(-7.25807e-11 0.000185176 1.43677e-13)
(-7.88473e-11 0.000195969 1.49335e-13)
(-8.29598e-11 0.00020684 1.50941e-13)
(-8.92531e-11 0.000217625 1.47641e-13)
(-9.2763e-11 0.000227404 8.33387e-14)
(-9.16404e-11 0.000229783 7.99825e-14)
(-9.54128e-11 0.000239603 1.46081e-13)
(-1.01141e-10 0.000250389 1.49064e-13)
(-1.06025e-10 0.000261169 1.47949e-13)
(-1.10693e-10 0.000270951 8.23419e-14)
(-1.08617e-10 0.000273329 8.05913e-14)
(-1.13184e-10 0.000283146 1.45598e-13)
(-1.18253e-10 0.000293932 1.4924e-13)
(-1.23678e-10 0.000304712 1.47323e-13)
(-1.27894e-10 0.000314497 8.23502e-14)
(-1.26197e-10 0.000316875 8.04331e-14)
(-1.30454e-10 0.00032669 1.45743e-13)
(-1.35777e-10 0.000337475 1.48954e-13)
(-1.40988e-10 0.000348256 1.47202e-13)
(-1.45377e-10 0.000358042 8.2068e-14)
(-1.43542e-10 0.00036042 8.05541e-14)
(-1.47914e-10 0.000370233 1.45652e-13)
(-1.53143e-10 0.000381018 1.48903e-13)
(-1.58428e-10 0.000391799 1.46966e-13)
(-1.62756e-10 0.000401588 8.19681e-14)
(-1.60971e-10 0.000403965 8.05467e-14)
(-1.65308e-10 0.000413777 1.45668e-13)
(-1.7056e-10 0.000424562 1.48785e-13)
(-1.75829e-10 0.000435343 1.46846e-13)
(-1.80162e-10 0.000445133 8.18262e-14)
(-1.78383e-10 0.00044751 8.05987e-14)
(-1.82706e-10 0.000457321 1.45626e-13)
(-1.87981e-10 0.000468106 1.48746e-13)
(-1.93215e-10 0.000478887 1.4669e-13)
(-1.97593e-10 0.000488678 8.17713e-14)
(-1.95758e-10 0.000491055 8.05742e-14)
(-2.00154e-10 0.000500865 1.45665e-13)
(-2.05338e-10 0.000511649 1.48627e-13)
(-2.10682e-10 0.000522431 1.4666e-13)
(-2.14925e-10 0.000532222 8.16091e-14)
(-2.13255e-10 0.0005346 8.06911e-14)
(-2.17454e-10 0.000544409 1.45536e-13)
(-2.22875e-10 0.000555193 1.4872e-13)
(-2.27933e-10 0.000565975 1.46404e-13)
(-2.32516e-10 0.000575767 8.17473e-14)
(-2.30439e-10 0.000578144 8.04606e-14)
(-2.35129e-10 0.000587953 1.45821e-13)
(-2.3996e-10 0.000598737 1.48326e-13)
(-2.45724e-10 0.000609519 1.46752e-13)
(-2.49461e-10 0.000619312 8.11872e-14)
(-2.48398e-10 0.000621689 8.10805e-14)
(-2.51874e-10 0.000631497 1.45125e-13)
(-2.58164e-10 0.000642289 1.49853e-13)
(-2.62261e-10 0.00065316 1.50361e-13)
(-2.68557e-10 0.000663949 1.46344e-13)
(-2.72046e-10 0.000673742 8.22121e-14)
(-2.70956e-10 0.000676119 8.05403e-14)
(-2.74708e-10 0.000685927 1.46375e-13)
(-2.80455e-10 0.000696711 1.48706e-13)
(-2.85312e-10 0.000707493 1.46992e-13)
(-2.89992e-10 0.000717287 8.15151e-14)
(-2.87912e-10 0.000719664 8.10606e-14)
(-2.92489e-10 0.000729471 1.45905e-13)
(-2.97549e-10 0.000740255 1.49015e-13)
(-3.02976e-10 0.000751037 1.46617e-13)
(-3.07181e-10 0.000760832 8.17131e-14)
(-3.05499e-10 0.000763208 8.08481e-14)
(-3.09745e-10 0.000773015 1.46046e-13)
(-3.15081e-10 0.000783799 1.48825e-13)
(-3.20275e-10 0.000794582 1.46666e-13)
(-3.24676e-10 0.000804376 8.15729e-14)
(-3.2283e-10 0.000806753 8.09193e-14)
(-3.27216e-10 0.000816559 1.45959e-13)
(-3.3243e-10 0.000827343 1.48829e-13)
(-3.37731e-10 0.000838126 1.46571e-13)
(-3.42035e-10 0.00084792 8.1558e-14)
(-3.40278e-10 0.000850297 8.08978e-14)
(-3.44582e-10 0.000860103 1.45943e-13)
(-3.49876e-10 0.000870887 1.4879e-13)
(-3.55095e-10 0.00088167 1.46509e-13)
(-3.59483e-10 0.000891465 8.15385e-14)
(-3.57638e-10 0.000893842 8.08666e-14)
(-3.62041e-10 0.000903647 1.45959e-13)
(-3.67223e-10 0.000914431 1.48706e-13)
(-3.72569e-10 0.000925214 1.46522e-13)
(-3.76809e-10 0.000935009 8.14285e-14)
(-3.75138e-10 0.000937386 8.09567e-14)
(-3.79336e-10 0.000947191 1.45825e-13)
(-3.8476e-10 0.000957976 1.48813e-13)
(-3.89818e-10 0.000968758 1.46311e-13)
(-3.94401e-10 0.000978554 8.16006e-14)
(-3.92321e-10 0.00098093 8.07092e-14)
(-3.9701e-10 0.000990736 1.46101e-13)
(-4.01846e-10 0.00100152 1.48431e-13)
(-4.07606e-10 0.0010123 1.46694e-13)
(-4.11347e-10 0.0010221 8.10652e-14)
(-4.10277e-10 0.00102447 8.13195e-14)
(-4.13756e-10 0.00103428 1.45388e-13)
(-4.20047e-10 0.00104507 1.49972e-13)
(-4.24145e-10 0.00105594 1.50287e-13)
(-4.3044e-10 0.00106673 1.46139e-13)
(-4.33927e-10 0.00107653 8.20172e-14)
(-4.3284e-10 0.00107891 8.06654e-14)
(-4.36591e-10 0.00108871 1.46461e-13)
(-4.42339e-10 0.00109949 1.48662e-13)
(-4.47193e-10 0.00111028 1.46818e-13)
(-4.51874e-10 0.00112007 8.13531e-14)
(-4.49795e-10 0.00112245 8.11805e-14)
(-4.54371e-10 0.00113225 1.46e-13)
(-4.59433e-10 0.00114304 1.48991e-13)
(-4.64857e-10 0.00115382 1.46475e-13)
(-4.69064e-10 0.00116362 8.15771e-14)
(-4.67379e-10 0.00116599 8.09628e-14)
(-4.71629e-10 0.0011758 1.46152e-13)
(-4.76962e-10 0.00118658 1.48814e-13)
(-4.82161e-10 0.00119737 1.46558e-13)
(-4.86553e-10 0.00120716 8.14499e-14)
(-4.84717e-10 0.00120954 8.10404e-14)
(-4.89091e-10 0.00121934 1.46059e-13)
(-4.94321e-10 0.00123013 1.48846e-13)
(-4.99603e-10 0.00124091 1.4647e-13)
(-5.03929e-10 0.00125071 8.14711e-14)
(-5.02145e-10 0.00125308 8.09939e-14)
(-5.06481e-10 0.00126289 1.46074e-13)
(-5.11738e-10 0.00127367 1.48787e-13)
(-5.17002e-10 0.00128445 1.46466e-13)
(-5.21336e-10 0.00129425 8.142e-14)
(-5.19554e-10 0.00129663 8.10162e-14)
(-5.23879e-10 0.00130643 1.46026e-13)
(-5.29157e-10 0.00131721 1.48793e-13)
(-5.34389e-10 0.001328 1.464e-13)
(-5.38765e-10 0.00133779 8.14388e-14)
(-5.36929e-10 0.00134017 8.09649e-14)
(-5.41324e-10 0.00134998 1.4606e-13)
(-5.46514e-10 0.00136076 1.48709e-13)
(-5.51853e-10 0.00137154 1.46443e-13)
(-5.56098e-10 0.00138134 8.13344e-14)
(-5.54422e-10 0.00138372 8.10603e-14)
(-5.58625e-10 0.00139352 1.45923e-13)
(-5.64046e-10 0.0014043 1.48831e-13)
(-5.69106e-10 0.00141509 1.46243e-13)
(-5.73687e-10 0.00142488 8.1523e-14)
(-5.71608e-10 0.00142726 8.08071e-14)
(-5.76295e-10 0.00143706 1.46205e-13)
(-5.81135e-10 0.00144785 1.48454e-13)
(-5.86892e-10 0.00145863 1.46644e-13)
(-5.90635e-10 0.00146843 8.09944e-14)
(-5.89563e-10 0.0014708 8.14198e-14)
(-5.93043e-10 0.00148061 1.45489e-13)
(-5.99334e-10 0.0014914 1.50007e-13)
(-6.03432e-10 0.00150227 1.50226e-13)
(-6.09726e-10 0.00151306 1.46016e-13)
(-6.13212e-10 0.00152286 8.19087e-14)
(-6.12128e-10 0.00152523 8.07153e-14)
(-6.15876e-10 0.00153504 1.4648e-13)
(-6.21627e-10 0.00154582 1.48618e-13)
(-6.26478e-10 0.0015566 1.46707e-13)
(-6.31161e-10 0.0015664 8.12603e-14)
(-6.29081e-10 0.00156878 8.12279e-14)
(-6.33659e-10 0.00157858 1.46029e-13)
(-6.38719e-10 0.00158937 1.48954e-13)
(-6.44144e-10 0.00160015 1.46382e-13)
(-6.48348e-10 0.00160995 8.14908e-14)
(-6.46668e-10 0.00161232 8.10152e-14)
(-6.50913e-10 0.00162213 1.46182e-13)
(-6.56252e-10 0.00163291 1.48792e-13)
(-6.61442e-10 0.00164369 1.46472e-13)
(-6.65843e-10 0.00165349 8.13803e-14)
(-6.63997e-10 0.00165587 8.10846e-14)
(-6.68385e-10 0.00166567 1.46104e-13)
(-6.736e-10 0.00167645 1.48819e-13)
(-6.78898e-10 0.00168724 1.46411e-13)
(-6.83203e-10 0.00169703 8.1391e-14)
(-6.81445e-10 0.00169941 8.1061e-14)
(-6.8575e-10 0.00170921 1.46097e-13)
(-6.91045e-10 0.00172 1.488e-13)
(-6.96263e-10 0.00173078 1.46379e-13)
(-7.00651e-10 0.00174058 8.13939e-14)
(-6.98805e-10 0.00174296 8.10279e-14)
(-7.03207e-10 0.00175276 1.46119e-13)
(-7.08392e-10 0.00176354 1.48733e-13)
(-7.13736e-10 0.00177433 1.46419e-13)
(-7.17977e-10 0.00178412 8.13033e-14)
(-7.16303e-10 0.0017865 8.11161e-14)
(-7.20503e-10 0.0017963 1.4599e-13)
(-7.25928e-10 0.00180709 1.48855e-13)
(-7.30986e-10 0.00181787 1.46229e-13)
(-7.35568e-10 0.00182767 8.14936e-14)
(-7.33487e-10 0.00183004 8.08652e-14)
(-7.38175e-10 0.00183985 1.46272e-13)
(-7.43015e-10 0.00185063 1.48483e-13)
(-7.48773e-10 0.00186141 1.46635e-13)
(-7.52516e-10 0.00187121 8.09697e-14)
(-7.51442e-10 0.00187359 8.1478e-14)
(-7.54923e-10 0.00188339 1.45556e-13)
(-7.61214e-10 0.00189418 1.5004e-13)
(-7.65313e-10 0.00190505 1.50213e-13)
(-7.71606e-10 0.00191584 1.45971e-13)
(-7.75092e-10 0.00192564 8.18639e-14)
(-7.74008e-10 0.00192802 8.07487e-14)
(-7.77757e-10 0.00193782 1.46507e-13)
(-7.83508e-10 0.00194861 1.48611e-13)
(-7.88358e-10 0.00195939 1.46668e-13)
(-7.93041e-10 0.00196919 8.12202e-14)
(-7.90961e-10 0.00197156 8.12626e-14)
(-7.95539e-10 0.00198137 1.46058e-13)
(-8.006e-10 0.00199215 1.48953e-13)
(-8.06023e-10 0.00200293 1.46347e-13)
(-8.1023e-10 0.00201273 8.14578e-14)
(-8.08546e-10 0.00201511 8.10473e-14)
(-8.12795e-10 0.00202491 1.46218e-13)
(-8.18129e-10 0.00203569 1.48791e-13)
(-8.23326e-10 0.00204648 1.46448e-13)
(-8.27719e-10 0.00205628 8.13438e-14)
(-8.25883e-10 0.00205865 8.11262e-14)
(-8.30258e-10 0.00206845 1.46132e-13)
(-8.35488e-10 0.00207924 1.48835e-13)
(-8.40769e-10 0.00209002 1.46377e-13)
(-8.45095e-10 0.00209982 8.13768e-14)
(-8.43311e-10 0.0021022 8.10808e-14)
(-8.47647e-10 0.002112 1.46153e-13)
(-8.52905e-10 0.00212278 1.48787e-13)
(-8.58167e-10 0.00213357 1.46389e-13)
(-8.62502e-10 0.00214336 8.13365e-14)
(-8.6072e-10 0.00214574 8.11039e-14)
(-8.65045e-10 0.00215554 1.46111e-13)
(-8.70323e-10 0.00216633 1.48803e-13)
(-8.75555e-10 0.00217711 1.46336e-13)
(-8.79931e-10 0.00218691 8.13649e-14)
(-8.78095e-10 0.00218928 8.10534e-14)
(-8.82489e-10 0.00219909 1.4615e-13)
(-8.87681e-10 0.00220987 1.48728e-13)
(-8.93019e-10 0.00222065 1.46391e-13)
(-8.97265e-10 0.00223045 8.12693e-14)
(-8.95587e-10 0.00223283 8.11493e-14)
(-8.9979e-10 0.00224263 1.46018e-13)
(-9.05212e-10 0.00225341 1.48858e-13)
(-9.10272e-10 0.0022642 1.46202e-13)
(-9.14852e-10 0.002274 8.14664e-14)
(-9.12774e-10 0.00227637 8.08959e-14)
(-9.17459e-10 0.00228618 1.46304e-13)
(-9.22302e-10 0.00229696 1.48487e-13)
(-9.28058e-10 0.00230774 1.46615e-13)
(-9.31802e-10 0.00231754 8.09432e-14)
(-9.30727e-10 0.00231992 8.15113e-14)
(-9.34208e-10 0.00232972 1.45588e-13)
(-9.405e-10 0.00234051 1.50049e-13)
(-9.44598e-10 0.00235138 1.50189e-13)
(-9.50891e-10 0.00236217 1.45924e-13)
(-9.54376e-10 0.00237197 8.18232e-14)
(-9.53294e-10 0.00237435 8.07652e-14)
(-9.57042e-10 0.00238415 1.46511e-13)
(-9.62794e-10 0.00239493 1.48592e-13)
(-9.67642e-10 0.00240572 1.46624e-13)
(-9.72326e-10 0.00241552 8.1185e-14)
(-9.70246e-10 0.00241789 8.12779e-14)
(-9.74825e-10 0.00242769 1.46067e-13)
(-9.79884e-10 0.00243848 1.48936e-13)
(-9.8531e-10 0.00244926 1.4631e-13)
(-9.89513e-10 0.00245906 8.14224e-14)
(-9.87834e-10 0.00246144 8.10671e-14)
(-9.92078e-10 0.00247124 1.46224e-13)
(-9.97418e-10 0.00248202 1.48782e-13)
(-1.00261e-09 0.00249281 1.4641e-13)
(-1.00701e-09 0.0025026 8.13186e-14)
(-1.00516e-09 0.00250498 8.11381e-14)
(-1.00955e-09 0.00251478 1.46152e-13)
(-1.01477e-09 0.00252557 1.48816e-13)
(-1.02006e-09 0.00253635 1.46358e-13)
(-1.02437e-09 0.00254615 8.13357e-14)
(-1.02261e-09 0.00254852 8.11157e-14)
(-1.02692e-09 0.00255833 1.46149e-13)
(-1.03221e-09 0.00256911 1.48803e-13)
(-1.03743e-09 0.00257989 1.46335e-13)
(-1.04182e-09 0.00258969 8.13442e-14)
(-1.03997e-09 0.00259207 8.10838e-14)
(-1.04437e-09 0.00260187 1.46175e-13)
(-1.04956e-09 0.00261265 1.48742e-13)
(-1.0549e-09 0.00262344 1.46382e-13)
(-1.05914e-09 0.00263324 8.12591e-14)
(-1.05747e-09 0.00263561 8.1173e-14)
(-1.06167e-09 0.00264542 1.46049e-13)
(-1.06709e-09 0.0026562 1.4887e-13)
(-1.07215e-09 0.00266698 1.462e-13)
(-1.07673e-09 0.00267678 8.14545e-14)
(-1.07465e-09 0.00267916 8.09226e-14)
(-1.07934e-09 0.00268896 1.46335e-13)
(-1.08418e-09 0.00269974 1.48503e-13)
(-1.08994e-09 0.00271053 1.46613e-13)
(-1.09368e-09 0.00272032 8.09339e-14)
(-1.09261e-09 0.0027227 8.15378e-14)
(-1.09609e-09 0.0027325 1.4562e-13)
(-1.10238e-09 0.00274329 1.50065e-13)
(-1.10648e-09 0.00275417 1.50186e-13)
(-1.11277e-09 0.00276496 1.45906e-13)
(-1.11626e-09 0.00277476 8.18047e-14)
(-1.11517e-09 0.00277713 8.0781e-14)
(-1.11892e-09 0.00278693 1.46525e-13)
(-1.12467e-09 0.00279772 1.4859e-13)
(-1.12952e-09 0.0028085 1.46609e-13)
(-1.13421e-09 0.0028183 8.11675e-14)
(-1.13213e-09 0.00282068 8.12954e-14)
(-1.1367e-09 0.00283048 1.46081e-13)
(-1.14177e-09 0.00284126 1.48938e-13)
(-1.14719e-09 0.00285204 1.46295e-13)
(-1.15139e-09 0.00286184 8.14095e-14)
(-1.14971e-09 0.00286422 8.10817e-14)
(-1.15396e-09 0.00287402 1.46245e-13)
(-1.15929e-09 0.00288481 1.48781e-13)
(-1.16449e-09 0.00289559 1.46403e-13)
(-1.16888e-09 0.00290539 8.12998e-14)
(-1.16705e-09 0.00290776 8.1162e-14)
(-1.17142e-09 0.00291757 1.46162e-13)
(-1.17665e-09 0.00292835 1.4883e-13)
(-1.18193e-09 0.00293913 1.46338e-13)
(-1.18626e-09 0.00294893 8.1337e-14)
(-1.18448e-09 0.00295131 8.11178e-14)
(-1.18881e-09 0.00296111 1.46187e-13)
(-1.19407e-09 0.00297189 1.48787e-13)
(-1.19933e-09 0.00298268 1.46356e-13)
(-1.20367e-09 0.00299248 8.13004e-14)
(-1.20188e-09 0.00299485 8.11421e-14)
(-1.20621e-09 0.00300466 1.46148e-13)
(-1.21149e-09 0.00301544 1.48808e-13)
(-1.21672e-09 0.00302622 1.46308e-13)
(-1.2211e-09 0.00303602 8.13325e-14)
(-1.21926e-09 0.0030384 8.10925e-14)
(-1.22365e-09 0.0030482 1.4619e-13)
(-1.22885e-09 0.00305898 1.48736e-13)
(-1.23418e-09 0.00306977 1.46369e-13)
(-1.23843e-09 0.00307956 8.12401e-14)
(-1.23675e-09 0.00308194 8.11895e-14)
(-1.24096e-09 0.00309174 1.4606e-13)
(-1.24638e-09 0.00310253 1.4887e-13)
(-1.25144e-09 0.00311331 1.46184e-13)
(-1.25602e-09 0.00312311 8.14406e-14)
(-1.25394e-09 0.00312549 8.09365e-14)
(-1.25862e-09 0.00313529 1.46349e-13)
(-1.26347e-09 0.00314607 1.48503e-13)
(-1.26922e-09 0.00315685 1.46602e-13)
(-1.27297e-09 0.00316665 8.09194e-14)
(-1.27189e-09 0.00316903 8.1554e-14)
(-1.27537e-09 0.00317883 1.45634e-13)
(-1.28166e-09 0.00318962 1.50068e-13)
(-1.28576e-09 0.00320049 1.50171e-13)
(-1.29206e-09 0.00321128 1.45881e-13)
(-1.29554e-09 0.00322108 8.17828e-14)
(-1.29446e-09 0.00322346 8.07889e-14)
(-1.29821e-09 0.00323326 1.46525e-13)
(-1.30396e-09 0.00324405 1.48579e-13)
(-1.30881e-09 0.00325483 1.46584e-13)
(-1.31349e-09 0.00326463 8.1149e-14)
(-1.31141e-09 0.003267 8.1302e-14)
(-1.31599e-09 0.00327681 1.46085e-13)
(-1.32105e-09 0.00328759 1.48927e-13)
(-1.32647e-09 0.00329837 1.46275e-13)
(-1.33068e-09 0.00330817 8.13891e-14)
(-1.329e-09 0.00331055 8.10925e-14)
(-1.33324e-09 0.00332035 1.46245e-13)
(-1.33858e-09 0.00333113 1.48777e-13)
(-1.34377e-09 0.00334192 1.46379e-13)
(-1.34817e-09 0.00335172 8.12882e-14)
(-1.34633e-09 0.00335409 8.11645e-14)
(-1.35071e-09 0.00336389 1.46175e-13)
(-1.35593e-09 0.00337468 1.48815e-13)
(-1.36123e-09 0.00338546 1.46332e-13)
(-1.36553e-09 0.00339526 8.13081e-14)
(-1.36378e-09 0.00339764 8.11431e-14)
(-1.36808e-09 0.00340744 1.46175e-13)
(-1.37338e-09 0.00341822 1.48805e-13)
(-1.37859e-09 0.00342901 1.46312e-13)
(-1.38298e-09 0.0034388 8.13191e-14)
(-1.38113e-09 0.00344118 8.11121e-14)
(-1.38554e-09 0.00345098 1.46203e-13)
(-1.39072e-09 0.00346177 1.48747e-13)
(-1.39607e-09 0.00347255 1.46363e-13)
(-1.40031e-09 0.00348235 8.12364e-14)
(-1.39863e-09 0.00348473 8.12022e-14)
(-1.40283e-09 0.00349453 1.4608e-13)
(-1.40826e-09 0.00350531 1.48877e-13)
(-1.41332e-09 0.00351609 1.46184e-13)
(-1.4179e-09 0.00352589 8.14343e-14)
(-1.41582e-09 0.00352827 8.09524e-14)
(-1.4205e-09 0.00353807 1.46367e-13)
(-1.42535e-09 0.00354886 1.48513e-13)
(-1.4311e-09 0.00355964 1.46602e-13)
(-1.43485e-09 0.00356944 8.09151e-14)
(-1.43377e-09 0.00357181 8.15692e-14)
(-1.43725e-09 0.00358162 1.45653e-13)
(-1.44354e-09 0.00359241 1.50079e-13)
(-1.44764e-09 0.00360328 1.50171e-13)
(-1.45394e-09 0.00361407 1.45872e-13)
(-1.45742e-09 0.00362387 8.17732e-14)
(-1.45634e-09 0.00362624 8.07983e-14)
(-1.46009e-09 0.00363605 1.46535e-13)
(-1.46584e-09 0.00364683 1.4858e-13)
(-1.47069e-09 0.00365761 1.46577e-13)
(-1.47537e-09 0.00366741 8.11393e-14)
(-1.47329e-09 0.00366979 8.1313e-14)
(-1.47787e-09 0.00367959 1.46094e-13)
(-1.48293e-09 0.00369037 1.4893e-13)
(-1.48835e-09 0.00370116 1.46267e-13)
(-1.49256e-09 0.00371096 8.13832e-14)
(-1.49088e-09 0.00371333 8.11004e-14)
(-1.49512e-09 0.00372313 1.46259e-13)
(-1.50046e-09 0.00373392 1.48776e-13)
(-1.50566e-09 0.0037447 1.46378e-13)
(-1.51005e-09 0.0037545 8.12758e-14)
(-1.50821e-09 0.00375688 8.11816e-14)
(-1.51259e-09 0.00376668 1.46179e-13)
(-1.51782e-09 0.00377746 1.48828e-13)
(-1.5231e-09 0.00378825 1.46316e-13)
(-1.52742e-09 0.00379804 8.13149e-14)
(-1.52564e-09 0.00380042 8.11383e-14)
(-1.52998e-09 0.00381022 1.46206e-13)
(-1.53524e-09 0.00382101 1.48787e-13)
(-1.5405e-09 0.00383179 1.46337e-13)
(-1.54483e-09 0.00384159 8.12804e-14)
(-1.54305e-09 0.00384397 8.11633e-14)
(-1.54737e-09 0.00385377 1.46168e-13)
(-1.55265e-09 0.00386455 1.4881e-13)
(-1.55788e-09 0.00387533 1.46293e-13)
(-1.56226e-09 0.00388513 8.13142e-14)
(-1.56042e-09 0.00388751 8.11146e-14)
(-1.56482e-09 0.00389731 1.46213e-13)
(-1.57001e-09 0.0039081 1.48741e-13)
(-1.57535e-09 0.00391888 1.46356e-13)
(-1.57959e-09 0.00392868 8.12236e-14)
(-1.57792e-09 0.00393105 8.12122e-14)
(-1.58212e-09 0.00394086 1.46084e-13)
(-1.58754e-09 0.00395164 1.48877e-13)
(-1.5926e-09 0.00396242 1.46174e-13)
(-1.59718e-09 0.00397222 8.14258e-14)
(-1.5951e-09 0.0039746 8.09599e-14)
(-1.59979e-09 0.0039844 1.46375e-13)
(-1.60463e-09 0.00399518 1.48511e-13)
(-1.61039e-09 0.00400597 1.46594e-13)
(-1.61413e-09 0.00401577 8.09058e-14)
(-1.61305e-09 0.00401814 8.15786e-14)
(-1.61654e-09 0.00402794 1.4566e-13)
(-1.62283e-09 0.00403874 1.5008e-13)
(-1.62693e-09 0.00404961 1.50161e-13)
(-1.63322e-09 0.0040604 1.45856e-13)
(-1.6367e-09 0.0040702 8.17593e-14)
(-1.63562e-09 0.00407257 8.08027e-14)
(-1.63937e-09 0.00408237 1.46533e-13)
(-1.64512e-09 0.00409316 1.48572e-13)
(-1.64997e-09 0.00410394 1.46561e-13)
(-1.65466e-09 0.00411374 8.11278e-14)
(-1.65257e-09 0.00411612 8.13161e-14)
(-1.65715e-09 0.00412592 1.46095e-13)
(-1.66221e-09 0.0041367 1.48922e-13)
(-1.66764e-09 0.00414749 1.46254e-13)
(-1.67184e-09 0.00415728 8.13695e-14)
(-1.67016e-09 0.00415966 8.11075e-14)
(-1.67441e-09 0.00416946 1.46258e-13)
(-1.67975e-09 0.00418025 1.48774e-13)
(-1.68494e-09 0.00419103 1.46361e-13)
(-1.68934e-09 0.00420083 8.12701e-14)
(-1.68749e-09 0.00420321 8.11803e-14)
(-1.69188e-09 0.00421301 1.46189e-13)
(-1.6971e-09 0.00422379 1.48814e-13)
(-1.70239e-09 0.00423457 1.46316e-13)
(-1.7067e-09 0.00424437 8.12916e-14)
(-1.70494e-09 0.00424675 8.11595e-14)
(-1.70924e-09 0.00425655 1.4619e-13)
(-1.71454e-09 0.00426734 1.48806e-13)
(-1.71976e-09 0.00427812 1.46299e-13)
(-1.72414e-09 0.00428792 8.13039e-14)
(-1.7223e-09 0.00429029 8.11293e-14)
(-1.7267e-09 0.0043001 1.4622e-13)
(-1.73189e-09 0.00431088 1.4875e-13)
(-1.73723e-09 0.00432166 1.46352e-13)
(-1.74147e-09 0.00433146 8.12226e-14)
(-1.7398e-09 0.00433384 8.122e-14)
(-1.744e-09 0.00434364 1.46098e-13)
(-1.74942e-09 0.00435442 1.48882e-13)
(-1.75448e-09 0.00436521 1.46175e-13)
(-1.75906e-09 0.00437501 8.14219e-14)
(-1.75698e-09 0.00437738 8.09707e-14)
(-1.76167e-09 0.00438718 1.46387e-13)
(-1.76651e-09 0.00439797 1.48519e-13)
(-1.77227e-09 0.00440875 1.46595e-13)
(-1.77601e-09 0.00441855 8.09036e-14)
(-1.77493e-09 0.00442093 8.15886e-14)
(-1.77842e-09 0.00443073 1.45674e-13)
(-1.78471e-09 0.00444152 1.50087e-13)
(-1.78881e-09 0.00445239 1.50162e-13)
(-1.7951e-09 0.00446318 1.45851e-13)
(-1.79858e-09 0.00447298 8.17538e-14)
(-1.7975e-09 0.00447536 8.08089e-14)
(-1.80125e-09 0.00448516 1.46541e-13)
(-1.807e-09 0.00449594 1.48573e-13)
(-1.81185e-09 0.00450673 1.46557e-13)
(-1.81653e-09 0.00451652 8.11217e-14)
(-1.81446e-09 0.0045189 8.1324e-14)
(-1.81903e-09 0.0045287 1.46101e-13)
(-1.82409e-09 0.00453949 1.48925e-13)
(-1.82952e-09 0.00455027 1.46249e-13)
(-1.83372e-09 0.00456007 8.13669e-14)
(-1.83204e-09 0.00456245 8.11122e-14)
(-1.83629e-09 0.00457225 1.46268e-13)
(-1.84162e-09 0.00458303 1.48772e-13)
(-1.84682e-09 0.00459381 1.46363e-13)
(-1.85121e-09 0.00460361 8.12606e-14)
(-1.84938e-09 0.00460599 8.1194e-14)
(-1.85375e-09 0.00461579 1.4619e-13)
(-1.85898e-09 0.00462658 1.48826e-13)
(-1.86426e-09 0.00463736 1.46303e-13)
(-1.86859e-09 0.00464716 8.1301e-14)
(-1.86681e-09 0.00464953 8.11513e-14)
(-1.87114e-09 0.00465934 1.46218e-13)
(-1.8764e-09 0.00467012 1.48787e-13)
(-1.88166e-09 0.0046809 1.46325e-13)
(-1.886e-09 0.0046907 8.12675e-14)
(-1.88421e-09 0.00469308 8.1177e-14)
(-1.88854e-09 0.00470288 1.46182e-13)
(-1.89382e-09 0.00471366 1.48812e-13)
(-1.89905e-09 0.00472445 1.46283e-13)
(-1.90342e-09 0.00473425 8.13025e-14)
(-1.90159e-09 0.00473662 8.11287e-14)
(-1.90598e-09 0.00474642 1.46227e-13)
(-1.91118e-09 0.00475721 1.48744e-13)
(-1.91651e-09 0.00476799 1.46347e-13)
(-1.92076e-09 0.00477779 8.12129e-14)
(-1.91908e-09 0.00478017 8.1227e-14)
(-1.92328e-09 0.00478997 1.461e-13)
(-1.92871e-09 0.00480075 1.48882e-13)
(-1.93377e-09 0.00481154 1.46167e-13)
(-1.93835e-09 0.00482133 8.14163e-14)
(-1.93627e-09 0.00482371 8.09749e-14)
(-1.94095e-09 0.00483351 1.46392e-13)
(-1.9458e-09 0.0048443 1.48517e-13)
(-1.95155e-09 0.00485508 1.46589e-13)
(-1.9553e-09 0.00486488 8.08968e-14)
(-1.95422e-09 0.00486726 8.15947e-14)
(-1.9577e-09 0.00487706 1.45678e-13)
(-1.96399e-09 0.00488785 1.50087e-13)
(-1.96809e-09 0.00489872 1.50154e-13)
(-1.97438e-09 0.00490951 1.4584e-13)
(-1.97787e-09 0.00491931 8.17439e-14)
(-1.97679e-09 0.00492169 8.08117e-14)
(-1.98053e-09 0.00493149 1.46539e-13)
(-1.98629e-09 0.00494227 1.48567e-13)
(-1.99113e-09 0.00495305 1.46545e-13)
(-1.99582e-09 0.00496285 8.11139e-14)
(-1.99374e-09 0.00496523 8.13254e-14)
(-1.99832e-09 0.00497503 1.46102e-13)
(-2.00338e-09 0.00498581 1.48918e-13)
(-2.0088e-09 0.0049966 1.46241e-13)
(-2.01301e-09 0.0050064 8.13565e-14)
(-2.01133e-09 0.00500877 8.11175e-14)
(-2.01557e-09 0.00501858 1.46266e-13)
(-2.02091e-09 0.00502936 1.48772e-13)
(-2.0261e-09 0.00504014 1.46349e-13)
(-2.0305e-09 0.00504994 8.12582e-14)
(-2.02866e-09 0.00505232 8.11907e-14)
(-2.03304e-09 0.00506212 1.46198e-13)
(-2.03826e-09 0.0050729 1.48813e-13)
(-2.04356e-09 0.00508369 1.46305e-13)
(-2.04786e-09 0.00509349 8.12805e-14)
(-2.0461e-09 0.00509586 8.11705e-14)
(-2.05041e-09 0.00510566 1.46201e-13)
(-2.0557e-09 0.00511645 1.48807e-13)
(-2.06092e-09 0.00512723 1.4629e-13)
(-2.06531e-09 0.00513703 8.12938e-14)
(-2.06346e-09 0.00513941 8.11407e-14)
(-2.06787e-09 0.00514921 1.46231e-13)
(-2.07305e-09 0.00515999 1.48752e-13)
(-2.07839e-09 0.00517078 1.46344e-13)
(-2.08264e-09 0.00518057 8.12133e-14)
(-2.08096e-09 0.00518295 8.12319e-14)
(-2.08516e-09 0.00519275 1.46111e-13)
(-2.09059e-09 0.00520354 1.48885e-13)
(-2.09565e-09 0.00521432 1.46169e-13)
(-2.10023e-09 0.00522412 8.14136e-14)
(-2.09815e-09 0.0052265 8.0983e-14)
(-2.10283e-09 0.0052363 1.46401e-13)
(-2.10768e-09 0.00524708 1.48523e-13)
(-2.11343e-09 0.00525786 1.4659e-13)
(-2.11718e-09 0.00526766 8.08958e-14)
(-2.1161e-09 0.00527004 8.16018e-14)
(-2.11958e-09 0.00527984 1.45688e-13)
(-2.12587e-09 0.00529063 1.50093e-13)
(-2.12997e-09 0.0053015 1.50155e-13)
(-2.13626e-09 0.00531229 1.45836e-13)
(-2.13975e-09 0.00532209 8.17405e-14)
(-2.13867e-09 0.00532447 8.08163e-14)
(-2.14241e-09 0.00533427 1.46545e-13)
(-2.14817e-09 0.00534505 1.48568e-13)
(-2.15301e-09 0.00535584 1.46544e-13)
(-2.1577e-09 0.00536564 8.11097e-14)
(-2.15562e-09 0.00536801 8.13315e-14)
(-2.1602e-09 0.00537782 1.46107e-13)
(-2.16526e-09 0.0053886 1.48922e-13)
(-2.17068e-09 0.00539938 1.46237e-13)
(-2.17489e-09 0.00540918 8.13556e-14)
(-2.17321e-09 0.00541156 8.11203e-14)
(-2.17745e-09 0.00542136 1.46275e-13)
(-2.18279e-09 0.00543214 1.4877e-13)
(-2.18798e-09 0.00544293 1.46352e-13)
(-2.19238e-09 0.00545273 8.12502e-14)
(-2.19054e-09 0.0054551 8.12025e-14)
(-2.19492e-09 0.0054649 1.46197e-13)
(-2.20015e-09 0.00547569 1.48825e-13)
(-2.20543e-09 0.00548647 1.46293e-13)
(-2.20975e-09 0.00549627 8.12913e-14)
(-2.20797e-09 0.00549865 8.11603e-14)
(-2.2123e-09 0.00550845 1.46226e-13)
(-2.21756e-09 0.00551923 1.48787e-13)
(-2.22283e-09 0.00553001 1.46317e-13)
(-2.22716e-09 0.00553981 8.12587e-14)
(-2.22538e-09 0.00554219 8.11864e-14)
(-2.2297e-09 0.00555199 1.46191e-13)
(-2.23498e-09 0.00556278 1.48813e-13)
(-2.24021e-09 0.00557356 1.46276e-13)
(-2.24459e-09 0.00558336 8.12943e-14)
(-2.24275e-09 0.00558574 8.11386e-14)
(-2.24715e-09 0.00559554 1.46237e-13)
(-2.25234e-09 0.00560632 1.48746e-13)
(-2.25768e-09 0.0056171 1.46341e-13)
(-2.26192e-09 0.0056269 8.12055e-14)
(-2.26024e-09 0.00562928 8.12372e-14)
(-2.26445e-09 0.00563908 1.46111e-13)
(-2.26987e-09 0.00564986 1.48885e-13)
(-2.27493e-09 0.00566065 1.46162e-13)
(-2.27951e-09 0.00567045 8.14096e-14)
(-2.27743e-09 0.00567282 8.09856e-14)
(-2.28212e-09 0.00568263 1.46404e-13)
(-2.28696e-09 0.00569341 1.48521e-13)
(-2.29271e-09 0.00570419 1.46586e-13)
(-2.29646e-09 0.00571399 8.08906e-14)
(-2.29538e-09 0.00571637 8.16059e-14)
(-2.29887e-09 0.00572617 1.4569e-13)
(-2.30516e-09 0.00573696 1.50092e-13)
(-2.30926e-09 0.00574783 1.50149e-13)
(-2.31555e-09 0.00575862 1.45828e-13)
(-2.31903e-09 0.00576842 8.17331e-14)
(-2.31795e-09 0.0057708 8.08181e-14)
(-2.3217e-09 0.0057806 1.46543e-13)
(-2.32745e-09 0.00579138 1.48564e-13)
(-2.3323e-09 0.00580217 1.46534e-13)
(-2.33698e-09 0.00581197 8.11041e-14)
(-2.3349e-09 0.00581434 8.1332e-14)
(-2.33948e-09 0.00582414 1.46107e-13)
(-2.34454e-09 0.00583493 1.48916e-13)
(-2.34997e-09 0.00584571 1.46231e-13)
(-2.35417e-09 0.00585551 8.13473e-14)
(-2.35249e-09 0.00585789 8.11245e-14)
(-2.35674e-09 0.00586769 1.46271e-13)
(-2.36208e-09 0.00587847 1.4877e-13)
(-2.36726e-09 0.00588925 1.4634e-13)
(-2.37167e-09 0.00589905 8.12496e-14)
(-2.36982e-09 0.00590143 8.11982e-14)
(-2.37421e-09 0.00591123 1.46205e-13)
(-2.37942e-09 0.00592202 1.48813e-13)
(-2.38472e-09 0.0059328 1.46298e-13)
(-2.38903e-09 0.0059426 8.12727e-14)
(-2.38727e-09 0.00594498 8.11783e-14)
(-2.39157e-09 0.00595478 1.46208e-13)
(-2.39687e-09 0.00596556 1.48807e-13)
(-2.40209e-09 0.00597634 1.46283e-13)
(-2.40647e-09 0.00598614 8.12865e-14)
(-2.40463e-09 0.00598852 8.1149e-14)
(-2.40903e-09 0.00599832 1.4624e-13)
(-2.41422e-09 0.0060091 1.48753e-13)
(-2.41956e-09 0.00601989 1.46339e-13)
(-2.4238e-09 0.00602969 8.12067e-14)
(-2.42212e-09 0.00603206 8.12405e-14)
(-2.42633e-09 0.00604186 1.4612e-13)
(-2.43175e-09 0.00605265 1.48887e-13)
(-2.43681e-09 0.00606343 1.46164e-13)
(-2.44139e-09 0.00607323 8.14075e-14)
(-2.43931e-09 0.00607561 8.09919e-14)
(-2.444e-09 0.00608541 1.46411e-13)
(-2.44884e-09 0.00609619 1.48526e-13)
(-2.45459e-09 0.00610698 1.46587e-13)
(-2.45834e-09 0.00611678 8.08902e-14)
(-2.45726e-09 0.00611915 8.16112e-14)
(-2.46074e-09 0.00612895 1.45698e-13)
(-2.46704e-09 0.00613974 1.50097e-13)
(-2.47114e-09 0.00615062 1.50151e-13)
(-2.47743e-09 0.00616141 1.45826e-13)
(-2.48091e-09 0.00617121 8.17309e-14)
(-2.47983e-09 0.00617358 8.08215e-14)
(-2.48358e-09 0.00618338 1.46547e-13)
(-2.48933e-09 0.00619417 1.48565e-13)
(-2.49418e-09 0.00620495 1.46534e-13)
(-2.49886e-09 0.00621475 8.1101e-14)
(-2.49678e-09 0.00621713 8.1337e-14)
(-2.50136e-09 0.00622693 1.46111e-13)
(-2.50642e-09 0.00623771 1.48919e-13)
(-2.51185e-09 0.00624849 1.46228e-13)
(-2.51605e-09 0.00625829 8.13474e-14)
(-2.51437e-09 0.00626067 8.11261e-14)
(-2.51862e-09 0.00627047 1.46279e-13)
(-2.52395e-09 0.00628126 1.48769e-13)
(-2.52915e-09 0.00629204 1.46344e-13)
(-2.53354e-09 0.00630184 8.12425e-14)
(-2.5317e-09 0.00630422 8.12088e-14)
(-2.53608e-09 0.00631402 1.46202e-13)
(-2.54131e-09 0.0063248 1.48824e-13)
(-2.54659e-09 0.00633558 1.46286e-13)
(-2.55092e-09 0.00634538 8.12843e-14)
(-2.54913e-09 0.00634776 8.11669e-14)
(-2.55347e-09 0.00635756 1.46232e-13)
(-2.55873e-09 0.00636834 1.48787e-13)
(-2.56399e-09 0.00637913 1.46311e-13)
(-2.56832e-09 0.00638893 8.12521e-14)
(-2.56654e-09 0.0063913 8.11933e-14)
(-2.57087e-09 0.0064011 1.46198e-13)
(-2.57615e-09 0.00641189 1.48814e-13)
(-2.58138e-09 0.00642267 1.46271e-13)
(-2.58575e-09 0.00643247 8.12884e-14)
(-2.58392e-09 0.00643485 8.11458e-14)
(-2.58831e-09 0.00644465 1.46245e-13)
(-2.5935e-09 0.00645543 1.48748e-13)
(-2.59884e-09 0.00646622 1.46337e-13)
(-2.60309e-09 0.00647602 8.12e-14)
(-2.60141e-09 0.00647839 8.12448e-14)
(-2.60561e-09 0.00648819 1.46119e-13)
(-2.61103e-09 0.00649898 1.48887e-13)
(-2.61609e-09 0.00650976 1.46159e-13)
(-2.62067e-09 0.00651956 8.14047e-14)
(-2.6186e-09 0.00652194 8.09934e-14)
(-2.62328e-09 0.00653174 1.46413e-13)
(-2.62812e-09 0.00654252 1.48524e-13)
(-2.63388e-09 0.0065533 1.46583e-13)
(-2.63762e-09 0.0065631 8.08859e-14)
(-2.63655e-09 0.00656548 8.16143e-14)
(-2.64003e-09 0.00657528 1.45699e-13)
(-2.64632e-09 0.00658607 1.50096e-13)
(-2.65042e-09 0.00659694 1.50146e-13)
(-2.65671e-09 0.00660773 1.45819e-13)
(-2.6602e-09 0.00661753 8.1725e-14)
(-2.65912e-09 0.00661991 8.08229e-14)
(-2.66286e-09 0.00662971 1.46546e-13)
(-2.66862e-09 0.0066405 1.48562e-13)
(-2.67346e-09 0.00665128 1.46526e-13)
(-2.67815e-09 0.00666108 8.10968e-14)
(-2.67607e-09 0.00666346 8.13369e-14)
(-2.68065e-09 0.00667326 1.46111e-13)
(-2.68571e-09 0.00668404 1.48914e-13)
(-2.69113e-09 0.00669482 1.46224e-13)
(-2.69533e-09 0.00670462 8.13404e-14)
(-2.69366e-09 0.006707 8.11298e-14)
(-2.6979e-09 0.0067168 1.46276e-13)
(-2.70324e-09 0.00672758 1.48769e-13)