/*--------------------------------*- C++ -*----------------------------------*\
| =========                 |                                                 |
| \\      /  F ield         | OpenFOAM: The Open Source CFD Toolbox           |
|  \\    /   O peration     | Version:  2206                                  |
|   \\  /    A nd           | Website:  www.openfoam.com                      |
|    \\/     M anipulation  |                                                 |
\*---------------------------------------------------------------------------*/
FoamFile
{
    version     2.0;
    format      ascii;
    arch        "LSB;label=32;scalar=64";
    class       volScalarField;
    location    "190";
    object      p;
}
// * * * * * * * * * * * * * * * * * * * * * * * * * * * * * * * * * * * * * //

dimensions      [0 2 -2 0 0 0 0];

internalField   nonuniform List<scalar> 
100000
(
3.62893e-09
-4.64477e-08
-1.31332e-07
-1.61485e-07
-1.74206e-07
-1.66484e-07
-1.8414e-07
-1.80081e-07
-1.82154e-07
-1.71856e-07
-1.61929e-07
-1.53561e-07
-1.36598e-07
-1.20535e-07
-9.85151e-08
-7.5987e-08
-5.53332e-08
-2.74894e-08
-9.82203e-10
3.26391e-08
6.42212e-08
9.63429e-08
1.3242e-07
1.70677e-07
2.11768e-07
2.56071e-07
3.01667e-07
3.44322e-07
3.94345e-07
4.42794e-07
4.97984e-07
5.51483e-07
6.04418e-07
6.62731e-07
7.21023e-07
7.8475e-07
8.47789e-07
9.09418e-07
9.7708e-07
1.04415e-06
1.11709e-06
1.18895e-06
1.2597e-06
1.33623e-06
1.41234e-06
1.49416e-06
1.57502e-06
1.65465e-06
1.74014e-06
1.82512e-06
1.91589e-06
2.0056e-06
2.09417e-06
2.18849e-06
2.28241e-06
2.382e-06
2.48064e-06
2.578e-06
2.68129e-06
2.78394e-06
2.89253e-06
2.99984e-06
3.10626e-06
3.21813e-06
3.32995e-06
3.44699e-06
3.5636e-06
3.67829e-06
3.79968e-06
3.9195e-06
4.04636e-06
4.17059e-06
4.29556e-06
4.42401e-06
4.55476e-06
4.68796e-06
4.82448e-06
4.96194e-06
5.09656e-06
5.23835e-06
5.37852e-06
5.52537e-06
5.67038e-06
5.81485e-06
5.96459e-06
6.11426e-06
6.26933e-06
6.42362e-06
6.5765e-06
6.73536e-06
6.89357e-06
7.05765e-06
7.22056e-06
7.38238e-06
7.54992e-06
7.71702e-06
7.88983e-06
8.06157e-06
8.23216e-06
8.4085e-06
8.5844e-06
8.76597e-06
8.94655e-06
9.12587e-06
9.31108e-06
9.49566e-06
9.68616e-06
9.87535e-06
1.00637e-05
1.02574e-05
1.04511e-05
1.065e-05
1.08484e-05
1.1045e-05
1.12482e-05
1.14498e-05
1.16585e-05
1.18645e-05
1.20713e-05
1.22816e-05
1.24941e-05
1.27091e-05
1.29274e-05
1.31466e-05
1.3363e-05
1.35865e-05
1.38085e-05
1.40371e-05
1.42638e-05
1.449e-05
1.47215e-05
1.49529e-05
1.51897e-05
1.54257e-05
1.56603e-05
1.59009e-05
1.61408e-05
1.63866e-05
1.66312e-05
1.68747e-05
1.7124e-05
1.73728e-05
1.76273e-05
1.78807e-05
1.8133e-05
1.8391e-05
1.86486e-05
1.89119e-05
1.91741e-05
1.94351e-05
1.97019e-05
1.99683e-05
2.02403e-05
2.05114e-05
2.07811e-05
2.10568e-05
2.13318e-05
2.16128e-05
2.18924e-05
2.21712e-05
2.24553e-05
2.27395e-05
2.30288e-05
2.33177e-05
2.36047e-05
2.38983e-05
2.41904e-05
2.44895e-05
2.47859e-05
2.50831e-05
2.53838e-05
2.56868e-05
2.59921e-05
2.63009e-05
2.66105e-05
2.69173e-05
2.72313e-05
2.75436e-05
2.78626e-05
2.81798e-05
2.84964e-05
2.88183e-05
2.91401e-05
2.94673e-05
2.97937e-05
3.01187e-05
3.04497e-05
3.078e-05
3.11162e-05
3.14512e-05
3.17852e-05
3.21248e-05
3.2464e-05
3.28089e-05
3.31527e-05
3.34954e-05
3.38438e-05
3.41918e-05
3.45454e-05
3.48981e-05
3.52495e-05
3.56068e-05
3.59634e-05
3.6326e-05
3.66872e-05
3.70476e-05
3.74134e-05
3.77791e-05
3.815e-05
3.85205e-05
3.88891e-05
3.92644e-05
3.9638e-05
4.00188e-05
4.03968e-05
4.07756e-05
4.11579e-05
4.15425e-05
4.19295e-05
4.23198e-05
4.2711e-05
4.30995e-05
4.3495e-05
4.3889e-05
4.42896e-05
4.46883e-05
4.50866e-05
4.549e-05
4.58935e-05
4.63023e-05
4.67103e-05
4.71169e-05
4.75295e-05
4.79414e-05
4.83592e-05
4.87758e-05
4.91913e-05
4.96126e-05
5.00334e-05
5.04598e-05
5.08853e-05
5.13095e-05
5.17396e-05
5.21691e-05
5.26044e-05
5.30386e-05
5.34717e-05
5.39104e-05
5.43488e-05
5.47928e-05
5.52358e-05
5.56776e-05
5.61252e-05
5.65722e-05
5.70252e-05
5.74768e-05
5.79275e-05
5.83837e-05
5.88398e-05
5.93011e-05
5.9762e-05
6.02209e-05
6.06865e-05
6.11506e-05
6.16217e-05
6.20901e-05
6.25593e-05
6.30319e-05
6.35068e-05
6.39842e-05
6.44649e-05
6.49465e-05
6.54253e-05
6.59112e-05
6.63955e-05
6.68865e-05
6.73756e-05
6.78642e-05
6.83581e-05
6.88518e-05
6.9351e-05
6.98494e-05
7.03464e-05
7.08493e-05
7.13516e-05
7.18597e-05
7.23667e-05
7.28726e-05
7.33842e-05
7.38954e-05
7.44122e-05
7.4928e-05
7.54426e-05
7.5963e-05
7.6483e-05
7.70086e-05
7.75332e-05
7.80565e-05
7.85858e-05
7.91143e-05
7.96489e-05
8.01821e-05
8.07144e-05
8.12522e-05
8.17898e-05
8.23328e-05
8.28752e-05
8.34157e-05
8.39629e-05
8.45086e-05
8.50613e-05
8.56112e-05
8.6162e-05
8.67162e-05
8.72728e-05
8.78317e-05
8.8394e-05
8.89572e-05
8.95176e-05
9.00851e-05
9.0651e-05
9.12235e-05
9.17942e-05
9.23644e-05
9.29399e-05
9.35152e-05
9.4096e-05
9.46759e-05
9.52545e-05
9.5839e-05
9.64229e-05
9.70127e-05
9.76012e-05
9.81887e-05
9.87819e-05
9.93746e-05
9.99731e-05
0.00010057
0.000101167
0.000101769
0.00010237
0.000102977
0.000103583
0.000104189
0.000104799
0.00010541
0.000106025
0.00010664
0.000107254
0.000107874
0.000108493
0.000109118
0.000109741
0.000110364
0.000110992
0.00011162
0.000112253
0.000112886
0.000113517
0.000114155
0.00011479
0.000115434
0.000116074
0.000116715
0.00011736
0.000118006
0.000118656
0.000119308
0.000119962
0.000120613
0.000121271
0.000121927
0.00012259
0.000123251
0.000123911
0.000124577
0.000125243
0.000125914
0.000126584
0.000127253
0.000127928
0.000128602
0.000129282
0.000129961
0.000130639
0.000131323
0.000132006
0.000132695
0.000133382
0.000134069
0.000134761
0.000135453
0.000136151
0.000136847
0.000137542
0.000138244
0.000138944
0.000139651
0.000140356
0.00014106
0.00014177
0.000142479
0.000143194
0.000143909
0.000144621
0.00014534
0.000146058
0.000146782
0.000147504
0.000148227
0.000148953
0.000149682
0.000150413
0.000151147
0.000151882
0.000152614
0.000153354
0.000154092
0.000154836
0.000155579
0.000156321
0.000157068
0.000157816
0.000158568
0.00015932
0.000160071
0.000160827
0.000161583
0.000162345
0.000163105
0.000163864
0.00016463
0.000165394
0.000166165
0.000166934
0.000167702
0.000168476
0.000169249
0.000170029
0.000170807
0.000171584
0.000172366
0.000173149
0.000173936
0.000174723
0.000175509
0.000176301
0.000177091
0.000177888
0.000178684
0.000179478
0.000180278
0.000181078
0.000181884
0.000182688
0.000183491
0.000184301
0.000185109
0.000185924
0.000186736
0.000187549
0.000188365
0.000189184
0.000190006
0.00019083
0.000191656
0.000192478
0.000193308
0.000194136
0.000194971
0.000195804
0.000196637
0.000197474
0.000198312
0.000199155
0.000199997
0.000200838
0.000201685
0.000202531
0.000203383
0.000204234
0.000205084
0.000205939
0.000206794
0.000207655
0.000208515
0.000209373
0.000210237
0.000211101
0.000211971
0.000212839
0.000213706
0.00021458
0.000215452
0.00021633
0.000217207
0.000218084
0.000218965
0.000219847
0.000220734
0.00022162
0.000222504
0.000223395
0.000224285
0.000225182
0.000226075
0.00022697
0.000227868
0.000228769
0.000229671
0.000230578
0.000231485
0.000232389
0.0002333
0.00023421
0.000235126
0.000236041
0.000236955
0.000237874
0.000238794
0.000239718
0.000240642
0.000241565
0.000242493
0.000243421
0.000244354
0.000245287
0.000246218
0.000247155
0.000248092
0.000249034
0.000249975
0.000250915
0.000251861
0.000252807
0.000253758
0.000254708
0.000255657
0.000256611
0.000257565
0.000258525
0.000259484
0.000260442
0.000261405
0.000262368
0.000263337
0.000264304
0.000265271
0.000266243
0.000267215
0.000268192
0.000269168
0.000270143
0.000271125
0.000272104
0.000273091
0.000274076
0.000275061
0.000276049
0.00027704
0.000278033
0.000279029
0.000280027
0.000281021
0.000282023
0.000283023
0.00028403
0.000285035
0.000286039
0.000287049
0.000288059
0.000289074
0.000290088
0.000291101
0.000292119
0.000293138
0.000294162
0.000295184
0.000296206
0.000297233
0.00029826
0.000299293
0.000300325
0.000301355
0.000302391
0.000303427
0.000304468
0.000305509
0.000306548
0.000307593
0.000308637
0.000309688
0.000310737
0.000311785
0.000312839
0.000313892
0.000314951
0.000316009
0.000317065
0.000318128
0.00031919
0.000320258
0.000321324
0.000322391
0.000323461
0.000324533
0.000325608
0.000326686
0.000327765
0.000328841
0.000329924
0.000331006
0.000332094
0.000333181
0.000334267
0.000335358
0.000336449
0.000337546
0.000338642
0.000339736
0.000340836
0.000341936
0.000343042
0.000344146
0.000345249
0.000346358
0.000347467
0.000348581
0.000349694
0.000350806
0.000351924
0.000353041
0.000354164
0.000355286
0.000356407
0.000357534
0.00035866
0.000359792
0.000360922
0.000362052
0.000363187
0.000364322
0.000365463
0.000366602
0.000367741
0.000368884
0.000370028
0.000371177
0.000372326
0.000373473
0.000374626
0.000375778
0.000376937
0.000378093
0.00037925
0.00038041
0.000381573
0.000382738
0.000383906
0.000385076
0.000386242
0.000387416
0.000388588
0.000389767
0.000390944
0.00039212
0.000393302
0.000394483
0.00039567
0.000396856
0.000398041
0.000399232
0.000400422
0.000401617
0.000402812
0.000404006
0.000405205
0.000406404
0.000407609
0.000408812
0.000410015
0.000411223
0.00041243
0.000413644
0.000414856
0.000416067
0.000417284
0.0004185
0.000419723
0.000420944
0.000422164
0.000423389
0.000424615
0.000425845
0.000427076
0.000428304
0.000429539
0.000430772
0.000432013
0.00043325
0.000434489
0.000435731
0.000436975
0.000438222
0.000439472
0.000440723
0.000441971
0.000443226
0.00044448
0.00044574
0.000446998
0.000448256
0.00044952
0.000450783
0.000452051
0.000453319
0.000454585
0.000455857
0.000457129
0.000458406
0.000459683
0.000460958
0.000462239
0.000463519
0.000464806
0.000466091
0.000467375
0.000468664
0.000469954
0.000471249
0.000472542
0.000473835
0.000475134
0.000476432
0.000477735
0.000479038
0.00048034
0.000481647
0.000482954
0.000484266
0.000485577
0.000486888
0.000488204
0.00048952
0.000490841
0.000492161
0.00049348
0.000494805
0.000496129
0.00049746
0.000498788
0.000500116
0.000501449
0.000502783
0.00050412
0.000505461
0.000506802
0.000508141
0.000509486
0.00051083
0.000512181
0.00051353
0.000514878
0.000516231
0.000517585
0.000518944
0.000520302
0.000521658
0.000523021
0.000524383
0.000525751
0.000527117
0.000528483
0.000529854
0.000531225
0.000532602
0.000533977
0.000535351
0.000536732
0.000538111
0.000539496
0.000540881
0.000542264
0.000543653
0.000545041
0.000546435
0.000547828
0.00054922
0.000550617
0.000552015
0.000553417
0.000554819
0.00055622
0.000557627
0.000559032
0.000560444
0.000561854
0.000563264
0.000564678
0.000566094
0.000567513
0.000568935
0.000570358
0.000571778
0.000573205
0.000574631
0.000576063
0.000577493
0.000578923
0.000580358
0.000581793
0.000583234
0.000584673
0.000586112
0.000587556
0.000588999
0.000590449
0.000591897
0.000593344
0.000594797
0.000596249
0.000597708
0.000599165
0.00060062
0.000602082
0.000603543
0.00060501
0.000606476
0.000607941
0.000609411
0.000610881
0.000612357
0.000613831
0.000615305
0.000616784
0.000618263
0.000619747
0.00062123
0.000622713
0.0006242
0.000625688
0.000627181
0.000628674
0.000630164
0.000631661
0.000633157
0.00063466
0.00063616
0.000637661
0.000639165
0.000640671
0.00064218
0.000643693
0.000645206
0.000646716
0.000648234
0.00064975
0.000651272
0.000652793
0.000654313
0.000655839
0.000657364
0.000658895
0.000660425
0.000661953
0.000663488
0.000665022
0.000666562
0.0006681
0.000669638
0.000671181
0.000672724
0.000674272
0.00067582
0.000677366
0.000678918
0.000680469
0.000682027
0.000683583
0.000685138
0.000686699
0.000688259
0.000689825
0.00069139
0.000692954
0.000694523
0.000696092
0.000697667
0.000699241
0.000700813
0.000702392
0.000703969
0.000705553
0.000707135
0.000708717
0.000710303
0.000711891
0.000713482
0.000715076
0.00071667
0.000718262
0.000719862
0.000721459
0.000723063
0.000724666
0.000726267
0.000727874
0.000729481
0.000731094
0.000732705
0.000734315
0.000735932
0.000737547
0.000739168
0.000740789
0.000742408
0.000744032
0.000745657
0.000747287
0.000748916
0.000750544
0.000752177
0.00075381
0.000755449
0.000757087
0.000758723
0.000760366
0.000762008
0.000763655
0.000765302
0.000766947
0.000768598
0.000770249
0.000771905
0.000773561
0.000775215
0.000776875
0.000778534
0.000780199
0.000781863
0.000783526
0.000785195
0.000786863
0.000788537
0.000790209
0.000791882
0.000793558
0.000795237
0.000796918
0.000798602
0.000800287
0.000801969
0.000803659
0.000805347
0.000807041
0.000808734
0.000810426
0.000812123
0.000813821
0.000815523
0.000817225
0.000818926
0.000820632
0.000822338
0.00082405
0.00082576
0.00082747
0.000829185
0.0008309
0.00083262
0.000834339
0.000836058
0.000837781
0.000839505
0.000841234
0.000842962
0.000844689
0.000846422
0.000848154
0.000849892
0.000851629
0.000853365
0.000855106
0.000856847
0.000858594
0.00086034
0.000862084
0.000863834
0.000865584
0.00086734
0.000869093
0.000870848
0.000872605
0.000874365
0.000876128
0.000877894
0.00087966
0.000881424
0.000883195
0.000884965
0.000886741
0.000888515
0.000890289
0.000892068
0.000893847
0.000895631
0.000897415
0.000899197
0.000900985
0.000902772
0.000904565
0.000906358
0.000908149
0.000909945
0.000911742
0.000913544
0.000915344
0.000917144
0.00091895
0.000920755
0.000922566
0.000924375
0.000926184
0.000927998
0.000929812
0.000931631
0.00093345
0.000935267
0.00093709
0.000938913
0.000940741
0.000942568
0.000944394
0.000946226
0.000948058
0.000949894
0.000951731
0.000953565
0.000955406
0.000957246
0.000959092
0.000960936
0.000962781
0.000964629
0.000966479
0.000968332
0.000970188
0.000972045
0.0009739
0.000975761
0.000977621
0.000979487
0.000981352
0.000983216
0.000985085
0.000986955
0.000988829
0.000990703
0.000992576
0.000994454
0.000996332
0.000998215
0.0010001
0.00100198
0.00100387
0.00100575
0.00100765
0.00100954
0.00101143
0.00101332
0.00101522
0.00101712
0.00101902
0.00102092
0.00102282
0.00102473
0.00102664
0.00102855
0.00103045
0.00103237
0.00103428
0.0010362
0.00103812
0.00104003
0.00104195
0.00104388
0.0010458
0.00104773
0.00104966
0.00105159
0.00105352
0.00105545
0.00105739
0.00105933
0.00106126
0.00106321
0.00106515
0.0010671
0.00106904
0.00107099
0.00107294
0.00107489
0.00107685
0.0010788
0.00108076
0.00108272
0.00108467
0.00108664
0.0010886
0.00109057
0.00109254
0.0010945
0.00109648
0.00109845
0.00110042
0.0011024
0.00110438
0.00110636
0.00110834
0.00111032
0.00111231
0.00111429
0.00111628
0.00111828
0.00112026
0.00112226
0.00112425
0.00112625
0.00112825
0.00113025
0.00113225
0.00113426
0.00113627
0.00113828
0.00114028
0.00114229
0.00114431
0.00114632
0.00114834
0.00115036
0.00115238
0.0011544
0.00115642
0.00115845
0.00116048
0.00116251
0.00116454
0.00116657
0.00116861
0.00117065
0.00117268
0.00117472
0.00117677
0.00117881
0.00118086
0.0011829
0.00118495
0.001187
0.00118906
0.00119111
0.00119317
0.00119522
0.00119728
0.00119935
0.00120141
0.00120347
0.00120554
0.00120761
0.00120968
0.00121175
0.00121382
0.0012159
0.00121798
0.00122006
0.00122214
0.00122422
0.0012263
0.00122839
0.00123048
0.00123257
0.00123466
0.00123675
0.00123884
0.00124094
0.00124304
0.00124514
0.00124724
0.00124935
0.00125145
0.00125356
0.00125567
0.00125778
0.0012599
0.00126201
0.00126413
0.00126625
0.00126836
0.00127049
0.00127261
0.00127474
0.00127687
0.00127899
0.00128112
0.00128325
0.00128539
0.00128753
0.00128966
0.0012918
0.00129394
0.00129609
0.00129823
0.00130038
0.00130253
0.00130468
0.00130683
0.00130898
0.00131114
0.00131329
0.00131545
0.00131762
0.00131978
0.00132194
0.00132411
0.00132627
0.00132844
0.00133062
0.00133279
0.00133496
0.00133714
0.00133932
0.0013415
0.00134368
0.00134586
0.00134804
0.00135023
0.00135242
0.00135461
0.0013568
0.001359
0.00136119
0.00136339
0.00136559
0.00136779
0.00137
0.0013722
0.00137441
0.00137662
0.00137883
0.00138104
0.00138325
0.00138547
0.00138769
0.00138991
0.00139213
0.00139435
0.00139658
0.0013988
0.00140103
0.00140326
0.00140549
0.00140773
0.00140996
0.0014122
0.00141444
0.00141668
0.00141892
0.00142116
0.00142341
0.00142566
0.0014279
0.00143016
0.00143241
0.00143466
0.00143692
0.00143918
0.00144144
0.0014437
0.00144596
0.00144823
0.00145049
0.00145276
0.00145503
0.0014573
0.00145958
0.00146185
0.00146413
0.00146641
0.00146869
0.00147097
0.00147326
0.00147555
0.00147784
0.00148013
0.00148242
0.00148471
0.00148701
0.00148931
0.00149161
0.0014939
0.00149621
0.00149851
0.00150082
0.00150313
0.00150544
0.00150775
0.00151006
0.00151238
0.00151469
0.00151701
0.00151933
0.00152165
0.00152398
0.0015263
0.00152863
0.00153096
0.00153329
0.00153562
0.00153796
0.00154029
0.00154263
0.00154497
0.00154731
0.00154966
0.001552
0.00155434
0.00155669
0.00155904
0.0015614
0.00156375
0.0015661
0.00156846
0.00157082
0.00157318
0.00157554
0.00157791
0.00158027
0.00158264
0.00158501
0.00158739
0.00158976
0.00159213
0.00159451
0.00159689
0.00159927
0.00160165
0.00160404
0.00160642
0.00160881
0.0016112
0.00161359
0.00161598
0.00161838
0.00162078
0.00162317
0.00162557
0.00162797
0.00163038
0.00163279
0.00163519
0.0016376
0.00164001
0.00164242
0.00164484
0.00164725
0.00164967
0.00165209
0.00165451
0.00165693
0.00165936
0.00166178
0.00166421
0.00166664
0.00166907
0.00167151
0.00167394
0.00167638
0.00167882
0.00168126
0.0016837
0.00168614
0.00168859
0.00169104
0.00169349
0.00169594
0.00169839
0.00170085
0.0017033
0.00170576
0.00170823
0.00171069
0.00171315
0.00171562
0.00171808
0.00172055
0.00172303
0.0017255
0.00172797
0.00173045
0.00173293
0.00173541
0.00173789
0.00174037
0.00174285
0.00174534
0.00174783
0.00175032
0.00175281
0.00175531
0.0017578
0.0017603
0.0017628
0.0017653
0.0017678
0.00177031
0.00177282
0.00177532
0.00177783
0.00178034
0.00178286
0.00178537
0.00178789
0.00179041
0.00179292
0.00179545
0.00179797
0.0018005
0.00180302
0.00180555
0.00180809
0.00181062
0.00181315
0.00181569
0.00181822
0.00182076
0.00182331
0.00182585
0.0018284
0.00183094
0.00183349
0.00183605
0.0018386
0.00184115
0.00184371
0.00184626
0.00184883
0.00185139
0.00185395
0.00185651
0.00185908
0.00186165
0.00186422
0.00186679
0.00186937
0.00187194
0.00187452
0.0018771
0.00187968
0.00188226
0.00188484
0.00188743
0.00189002
0.00189261
0.0018952
0.00189779
0.00190039
0.00190298
0.00190558
0.00190818
0.00191078
0.00191339
0.00191599
0.0019186
0.00192121
0.00192382
0.00192643
0.00192905
0.00193166
0.00193428
0.0019369
0.00193952
0.00194214
0.00194477
0.00194739
0.00195003
0.00195265
0.00195529
0.00195792
0.00196056
0.0019632
0.00196583
0.00196848
0.00197112
0.00197376
0.00197641
0.00197906
0.00198171
0.00198436
0.00198701
0.00198967
0.00199233
0.00199499
0.00199765
0.00200031
0.00200297
0.00200564
0.00200831
0.00201098
0.00201365
0.00201632
0.00201899
0.00202167
0.00202435
0.00202703
0.00202971
0.00203239
0.00203508
0.00203777
0.00204045
0.00204314
0.00204583
0.00204853
0.00205123
0.00205392
0.00205662
0.00205932
0.00206203
0.00206473
0.00206744
0.00207014
0.00207285
0.00207557
0.00207828
0.002081
0.00208371
0.00208643
0.00208915
0.00209188
0.0020946
0.00209733
0.00210006
0.00210278
0.00210552
0.00210825
0.00211098
0.00211372
0.00211646
0.0021192
0.00212195
0.00212469
0.00212743
0.00213018
0.00213293
0.00213568
0.00213843
0.00214119
0.00214394
0.0021467
0.00214946
0.00215222
0.00215499
0.00215775
0.00216052
0.00216329
0.00216606
0.00216883
0.0021716
0.00217438
0.00217716
0.00217993
0.00218271
0.0021855
0.00218828
0.00219107
0.00219385
0.00219664
0.00219943
0.00220223
0.00220502
0.00220782
0.00221062
0.00221342
0.00221622
0.00221903
0.00222183
0.00222464
0.00222745
0.00223026
0.00223308
0.00223589
0.0022387
0.00224152
0.00224434
0.00224717
0.00224999
0.00225281
0.00225564
0.00225847
0.0022613
0.00226414
0.00226697
0.0022698
0.00227264
0.00227548
0.00227832
0.00228116
0.00228401
0.00228686
0.00228971
0.00229256
0.00229541
0.00229826
0.00230112
0.00230398
0.00230683
0.00230969
0.00231255
0.00231542
0.00231829
0.00232115
0.00232402
0.00232689
0.00232976
0.00233264
0.00233552
0.00233839
0.00234127
0.00234416
0.00234704
0.00234993
0.00235282
0.0023557
0.0023586
0.00236149
0.00236438
0.00236728
0.00237018
0.00237308
0.00237598
0.00237888
0.00238179
0.00238469
0.0023876
0.00239051
0.00239343
0.00239634
0.00239926
0.00240217
0.00240509
0.00240802
0.00241094
0.00241386
0.00241679
0.00241972
0.00242265
0.00242558
0.00242851
0.00243145
0.00243438
0.00243732
0.00244026
0.0024432
0.00244615
0.00244909
0.00245204
0.00245499
0.00245794
0.00246089
0.00246385
0.00246681
0.00246976
0.00247272
0.00247568
0.00247865
0.00248161
0.00248458
0.00248755
0.00249052
0.00249349
0.00249646
0.00249944
0.00250242
0.0025054
0.00250838
0.00251136
0.00251435
0.00251734
0.00252032
0.00252331
0.00252631
0.0025293
0.0025323
0.00253529
0.00253829
0.00254129
0.0025443
0.0025473
0.00255031
0.00255331
0.00255632
0.00255934
0.00256235
0.00256536
0.00256838
0.0025714
0.00257442
0.00257744
0.00258046
0.00258349
0.00258652
0.00258955
0.00259258
0.00259561
0.00259864
0.00260168
0.00260472
0.00260776
0.0026108
0.00261384
0.00261688
0.00261993
0.00262298
0.00262603
0.00262908
0.00263214
0.00263519
0.00263825
0.00264131
0.00264437
0.00264743
0.0026505
0.00265357
0.00265664
0.0026597
0.00266278
0.00266585
0.00266893
0.002672
0.00267508
0.00267816
0.00268124
0.00268433
0.00268742
0.0026905
0.00269359
0.00269668
0.00269978
0.00270287
0.00270597
0.00270907
0.00271217
0.00271527
0.00271837
0.00272148
0.00272458
0.00272769
0.0027308
0.00273392
0.00273703
0.00274015
0.00274326
0.00274638
0.00274951
0.00275263
0.00275575
0.00275888
0.00276201
0.00276514
0.00276827
0.0027714
0.00277453
0.00277767
0.00278081
0.00278395
0.00278709
0.00279024
0.00279338
0.00279653
0.00279968
0.00280283
0.00280599
0.00280914
0.0028123
0.00281546
0.00281862
0.00282178
0.00282494
0.00282811
0.00283128
0.00283445
0.00283762
0.00284079
0.00284397
0.00284714
0.00285032
0.0028535
0.00285668
0.00285987
0.00286305
0.00286624
0.00286943
0.00287262
0.00287581
0.002879
0.0028822
0.0028854
0.00288859
0.0028918
0.002895
0.0028982
0.00290141
0.00290462
0.00290783
0.00291104
0.00291425
0.00291747
0.00292068
0.0029239
0.00292712
0.00293034
0.00293357
0.00293679
0.00294002
0.00294325
0.00294648
0.00294971
0.00295295
0.00295619
0.00295943
0.00296267
0.00296591
0.00296915
0.0029724
0.00297565
0.0029789
0.00298214
0.0029854
0.00298865
0.00299191
0.00299517
0.00299843
0.00300169
0.00300495
0.00300822
0.00301148
0.00301475
0.00301802
0.00302129
0.00302457
0.00302784
0.00303112
0.0030344
0.00303768
0.00304096
0.00304425
0.00304753
0.00305082
0.00305411
0.0030574
0.0030607
0.00306399
0.00306728
0.00307058
0.00307388
0.00307719
0.00308049
0.00308379
0.0030871
0.00309041
0.00309372
0.00309703
0.00310035
0.00310366
0.00310698
0.0031103
0.00311363
0.00311695
0.00312027
0.0031236
0.00312693
0.00313026
0.00313359
0.00313693
0.00314026
0.0031436
0.00314694
0.00315028
0.00315362
0.00315697
0.00316032
0.00316366
0.00316701
0.00317036
0.00317372
0.00317708
0.00318043
0.00318379
0.00318715
0.00319051
0.00319388
0.00319724
0.00320061
0.00320398
0.00320735
0.00321072
0.0032141
0.00321747
0.00322085
0.00322423
0.00322762
0.003231
0.00323438
0.00323777
0.00324116
0.00324455
0.00324794
0.00325133
0.00325473
0.00325813
0.00326153
0.00326493
0.00326833
0.00327174
0.00327515
0.00327855
0.00328197
0.00328538
0.00328879
0.00329221
0.00329562
0.00329904
0.00330247
0.00330589
0.00330931
0.00331274
0.00331617
0.0033196
0.00332303
0.00332646
0.0033299
0.00333333
0.00333677
0.00334021
0.00334365
0.0033471
0.00335055
0.00335399
0.00335744
0.00336089
0.00336434
0.0033678
0.00337126
0.00337471
0.00337817
0.00338163
0.0033851
0.00338856
0.00339203
0.0033955
0.00339897
0.00340244
0.00340591
0.00340939
0.00341287
0.00341634
0.00341983
0.00342331
0.00342679
0.00343028
0.00343376
0.00343726
0.00344075
0.00344424
0.00344774
0.00345124
0.00345473
0.00345824
0.00346174
0.00346524
0.00346875
0.00347226
0.00347577
0.00347928
0.00348279
0.00348631
0.00348982
0.00349334
0.00349686
0.00350038
0.00350391
0.00350743
0.00351096
0.00351449
0.00351802
0.00352155
0.00352508
0.00352862
0.00353216
0.0035357
0.00353924
0.00354278
0.00354633
0.00354988
0.00355342
0.00355697
0.00356052
0.00356408
0.00356763
0.00357119
0.00357475
0.00357831
0.00358187
0.00358544
0.003589
0.00359257
0.00359614
0.00359971
0.00360329
0.00360686
0.00361044
0.00361402
0.0036176
0.00362118
0.00362477
0.00362835
0.00363194
0.00363553
0.00363912
0.00364271
0.0036463
0.0036499
0.0036535
0.0036571
0.0036607
0.0036643
0.00366791
0.00367152
0.00367513
0.00367874
0.00368235
0.00368596
0.00368958
0.0036932
0.00369682
0.00370044
0.00370406
0.00370768
0.00371131
0.00371494
0.00371857
0.0037222
0.00372583
0.00372947
0.00373311
0.00373674
0.00374039
0.00374403
0.00374767
0.00375132
0.00375496
0.00375861
0.00376226
0.00376592
0.00376957
0.00377323
0.00377688
0.00378054
0.00378421
0.00378787
0.00379154
0.0037952
0.00379887
0.00380254
0.00380622
0.00380989
0.00381357
0.00381725
0.00382093
0.00382461
0.00382829
0.00383198
0.00383566
0.00383935
0.00384305
0.00384674
0.00385043
0.00385413
0.00385782
0.00386152
0.00386522
0.00386892
0.00387263
0.00387633
0.00388005
0.00388376
0.00388746
0.00389118
0.00389489
0.00389861
0.00390233
0.00390605
0.00390977
0.00391349
0.00391722
0.00392095
0.00392467
0.00392841
0.00393214
0.00393587
0.00393961
0.00394335
0.00394709
0.00395083
0.00395457
0.00395832
0.00396207
0.00396581
0.00396956
0.00397332
0.00397707
0.00398083
0.00398458
0.00398835
0.00399211
0.00399587
0.00399964
0.0040034
0.00400717
0.00401094
0.00401471
0.00401849
0.00402226
0.00402604
0.00402982
0.0040336
0.00403738
0.00404116
0.00404495
0.00404874
0.00405253
0.00405632
0.00406011
0.00406391
0.0040677
0.0040715
0.0040753
0.0040791
0.00408291
0.00408671
0.00409052
0.00409433
0.00409814
0.00410195
0.00410576
0.00410958
0.0041134
0.00411722
0.00412104
0.00412486
0.00412869
0.00413251
0.00413634
0.00414017
0.004144
0.00414784
0.00415167
0.00415551
0.00415935
0.00416319
0.00416703
0.00417088
0.00417473
0.00417857
0.00418242
0.00418628
0.00419013
0.00419399
0.00419784
0.0042017
0.00420556
0.00420943
0.00421329
0.00421715
0.00422102
0.00422489
0.00422876
0.00423264
0.00423651
0.00424039
0.00424426
0.00424814
0.00425203
0.00425591
0.00425979
0.00426368
0.00426757
0.00427146
0.00427535
0.00427924
0.00428314
0.00428704
0.00429094
0.00429484
0.00429874
0.00430264
0.00430655
0.00431046
0.00431437
0.00431828
0.00432219
0.00432611
0.00433003
0.00433395
0.00433787
0.00434179
0.00434571
0.00434964
0.00435357
0.0043575
0.00436143
0.00436536
0.0043693
0.00437324
0.00437717
0.00438112
0.00438506
0.004389
0.00439295
0.00439689
0.00440084
0.00440479
0.00440875
0.0044127
0.00441666
0.00442062
0.00442457
0.00442854
0.0044325
0.00443646
0.00444043
0.0044444
0.00444837
0.00445234
0.00445631
0.00446029
0.00446427
0.00446825
0.00447223
0.00447621
0.00448019
0.00448418
0.00448817
0.00449216
0.00449615
0.00450014
0.00450414
0.00450814
0.00451213
0.00451613
0.00452013
0.00452414
0.00452814
0.00453215
0.00453616
0.00454017
0.00454419
0.0045482
0.00455222
0.00455624
0.00456026
0.00456428
0.0045683
0.00457233
0.00457636
0.00458038
0.00458441
0.00458845
0.00459248
0.00459652
0.00460055
0.00460459
0.00460863
0.00461268
0.00461673
0.00462077
0.00462482
0.00462887
0.00463292
0.00463698
0.00464103
0.00464509
0.00464914
0.00465321
0.00465727
0.00466133
0.0046654
0.00466946
0.00467354
0.00467761
0.00468168
0.00468575
0.00468983
0.00469391
0.00469799
0.00470207
0.00470615
0.00471024
0.00471432
0.00471842
0.00472251
0.0047266
0.00473069
0.00473479
0.00473889
0.00474299
0.00474709
0.00475119
0.0047553
0.00475941
0.00476352
0.00476762
0.00477174
0.00477585
0.00477997
0.00478409
0.0047882
0.00479233
0.00479645
0.00480057
0.0048047
0.00480883
0.00481296
0.00481709
0.00482122
0.00482536
0.00482949
0.00483363
0.00483777
0.00484192
0.00484606
0.0048502
0.00485435
0.0048585
0.00486265
0.00486681
0.00487096
0.00487512
0.00487927
0.00488343
0.0048876
0.00489176
0.00489592
0.00490009
0.00490426
0.00490843
0.0049126
0.00491677
0.00492095
0.00492513
0.00492931
0.00493349
0.00493767
0.00494186
0.00494604
0.00495024
0.00495443
0.00495861
0.00496281
0.004967
0.0049712
0.0049754
0.0049796
0.00498381
0.00498801
0.00499222
0.00499643
0.00500063
0.00500484
0.00500906
0.00501327
0.00501749
0.00502171
0.00502593
0.00503015
0.00503438
0.0050386
0.00504283
0.00504706
0.00505129
0.00505552
0.00505975
0.00506399
0.00506823
0.00507247
0.00507671
0.00508095
0.00508519
0.00508944
0.00509369
0.00509794
0.00510219
0.00510644
0.0051107
0.00511496
0.00511922
0.00512348
0.00512774
0.00513201
0.00513627
0.00514054
0.00514481
0.00514909
0.00515336
0.00515763
0.00516191
0.00516619
0.00517047
0.00517475
0.00517904
0.00518332
0.00518761
0.0051919
0.00519619
0.00520049
0.00520478
0.00520908
0.00521338
0.00521767
0.00522198
0.00522628
0.00523059
0.00523489
0.0052392
0.00524351
0.00524782
0.00525214
0.00525646
0.00526077
0.00526509
0.00526941
0.00527374
0.00527806
0.00528238
0.00528671
0.00529104
0.00529538
0.00529971
0.00530404
0.00530838
0.00531272
0.00531706
0.0053214
0.00532574
0.00533009
0.00533444
0.00533879
0.00534314
0.0053475
0.00535185
0.00535621
0.00536056
0.00536493
0.00536929
0.00537365
0.00537802
0.00538238
0.00538676
0.00539113
0.0053955
0.00539987
0.00540425
0.00540863
0.00541301
0.00541739
0.00542177
0.00542616
0.00543055
0.00543494
0.00543932
0.00544372
0.00544811
0.00545251
0.0054569
0.0054613
0.0054657
0.0054701
0.00547451
0.00547892
0.00548332
0.00548773
0.00549214
0.00549656
0.00550098
0.00550539
0.00550981
0.00551423
0.00551865
0.00552308
0.0055275
0.00553193
0.00553636
0.00554079
0.00554522
0.00554966
0.00555409
0.00555853
0.00556297
0.00556742
0.00557186
0.0055763
0.00558075
0.0055852
0.00558965
0.00559411
0.00559856
0.00560301
0.00560747
0.00561193
0.0056164
0.00562086
0.00562532
0.00562979
0.00563426
0.00563873
0.0056432
0.00564767
0.00565215
0.00565663
0.00566111
0.00566558
0.00567007
0.00567455
0.00567904
0.00568353
0.00568801
0.00569251
0.005697
0.0057015
0.00570599
0.00571049
0.00571499
0.00571949
0.005724
0.0057285
0.00573301
0.00573751
0.00574203
0.00574654
0.00575106
0.00575557
0.00576009
0.00576461
0.00576913
0.00577366
0.00577818
0.00578271
0.00578724
0.00579177
0.0057963
0.00580084
0.00580537
0.00580991
0.00581445
0.00581899
0.00582353
0.00582808
0.00583262
0.00583717
0.00584172
0.00584628
0.00585083
0.00585538
0.00585994
0.0058645
0.00586906