/*--------------------------------*- C++ -*----------------------------------*\
| =========                 |                                                 |
| \\      /  F ield         | OpenFOAM: The Open Source CFD Toolbox           |
|  \\    /   O peration     | Version:  2206                                  |
|   \\  /    A nd           | Website:  www.openfoam.com                      |
|    \\/     M anipulation  |                                                 |
\*---------------------------------------------------------------------------*/
FoamFile
{
    version     2.0;
    format      ascii;
    arch        "LSB;label=32;scalar=64";
    class       volVectorField;
    location    "190";
    object      U;
}
// * * * * * * * * * * * * * * * * * * * * * * * * * * * * * * * * * * * * * //

dimensions      [0 1 -1 0 0 0 0];

internalField   nonuniform List<vector> 
100000
(
(-1.07971e-11 6.11841e-06 -4.17968e-12)
(-9.42151e-12 1.11124e-05 1.32186e-13)
(-8.43342e-12 2.03432e-05 1.01734e-13)
(-1.40624e-11 3.02608e-05 1.74976e-13)
(-1.65753e-11 3.92932e-05 6.99836e-14)
(-1.77531e-11 4.13977e-05 6.73501e-14)
(-1.98014e-11 5.06203e-05 1.30572e-13)
(-2.53171e-11 6.06477e-05 1.42241e-13)
(-2.99226e-11 7.06622e-05 1.44257e-13)
(-3.38138e-11 7.97689e-05 8.00295e-14)
(-3.24756e-11 8.18153e-05 7.46973e-14)
(-3.60703e-11 9.1016e-05 1.3734e-13)
(-4.14015e-11 0.000101047 1.39372e-13)
(-4.61029e-11 0.000111069 1.40952e-13)
(-5.04404e-11 0.000120196 7.86168e-14)
(-4.84359e-11 0.000122232 7.46132e-14)
(-5.28866e-11 0.000131422 1.36395e-13)
(-5.74273e-11 0.000141453 1.40101e-13)
(-6.29108e-11 0.000151478 1.39711e-13)
(-6.64332e-11 0.000160615 7.76298e-14)
(-6.54086e-11 0.000162647 7.49063e-14)
(-6.86938e-11 0.000171831 1.36376e-13)
(-7.46385e-11 0.000181866 1.41152e-13)
(-7.85192e-11 0.00019196 1.42937e-13)
(-8.44727e-11 0.00020199 1.39827e-13)
(-8.7824e-11 0.000211133 7.86165e-14)
(-8.66794e-11 0.000213164 7.5176e-14)
(-9.0288e-11 0.000222343 1.38502e-13)
(-9.56866e-11 0.000232374 1.40939e-13)
(-1.00336e-10 0.000242401 1.40265e-13)
(-1.04748e-10 0.000251547 7.74559e-14)
(-1.02743e-10 0.000253577 7.58751e-14)
(-1.07059e-10 0.000262754 1.37876e-13)
(-1.1188e-10 0.000272784 1.412e-13)
(-1.16996e-10 0.000282812 1.39533e-13)
(-1.21025e-10 0.000291961 7.75397e-14)
(-1.19338e-10 0.00029399 7.56138e-14)
(-1.234e-10 0.000303164 1.38081e-13)
(-1.28426e-10 0.000313195 1.40832e-13)
(-1.33373e-10 0.000323223 1.39474e-13)
(-1.37536e-10 0.000332374 7.71873e-14)
(-1.35744e-10 0.000334402 7.57814e-14)
(-1.39894e-10 0.000343575 1.37923e-13)
(-1.44849e-10 0.000353606 1.40829e-13)
(-1.4985e-10 0.000363634 1.39185e-13)
(-1.53969e-10 0.000372786 7.71326e-14)
(-1.52214e-10 0.000374814 7.57189e-14)
(-1.56338e-10 0.000383987 1.37976e-13)
(-1.61311e-10 0.000394017 1.40667e-13)
(-1.663e-10 0.000404045 1.39104e-13)
(-1.70422e-10 0.000413198 7.69519e-14)
(-1.68672e-10 0.000415226 7.57995e-14)
(-1.72787e-10 0.000424398 1.37896e-13)
(-1.77776e-10 0.000434428 1.40656e-13)
(-1.8274e-10 0.000444457 1.3892e-13)
(-1.86894e-10 0.000453611 7.69227e-14)
(-1.85104e-10 0.000455639 7.57462e-14)
(-1.89272e-10 0.000464809 1.37955e-13)
(-1.94194e-10 0.00047484 1.40516e-13)
(-1.9924e-10 0.000484868 1.38909e-13)
(-2.03291e-10 0.000494023 7.6745e-14)
(-2.0163e-10 0.000496051 7.58728e-14)
(-2.05642e-10 0.000505221 1.37813e-13)
(-2.10754e-10 0.000515251 1.40617e-13)
(-2.15567e-10 0.000525279 1.38648e-13)
(-2.19901e-10 0.000534435 7.68865e-14)
(-2.17896e-10 0.000536463 7.56395e-14)
(-2.22328e-10 0.000545632 1.38094e-13)
(-2.26931e-10 0.000555662 1.40229e-13)
(-2.3236e-10 0.000565691 1.38988e-13)
(-2.35946e-10 0.000574847 7.63389e-14)
(-2.34848e-10 0.000576874 7.62407e-14)
(-2.38185e-10 0.000586044 1.37406e-13)
(-2.44113e-10 0.000596078 1.41647e-13)
(-2.48013e-10 0.000606172 1.42114e-13)
(-2.53948e-10 0.000616205 1.38587e-13)
(-2.57298e-10 0.000625362 7.73082e-14)
(-2.56174e-10 0.000627389 7.57235e-14)
(-2.59773e-10 0.000636558 1.38601e-13)
(-2.65186e-10 0.000646588 1.40601e-13)
(-2.69814e-10 0.000656616 1.39194e-13)
(-2.74237e-10 0.000665773 7.66625e-14)
(-2.72231e-10 0.000667801 7.61986e-14)
(-2.76558e-10 0.000676969 1.38173e-13)
(-2.81372e-10 0.000686999 1.40873e-13)
(-2.8649e-10 0.000697028 1.38856e-13)
(-2.9051e-10 0.000706185 7.683e-14)
(-2.88836e-10 0.000708213 7.60155e-14)
(-2.92891e-10 0.000717381 1.38288e-13)
(-2.97929e-10 0.000727411 1.40709e-13)
(-3.02862e-10 0.000737439 1.38886e-13)
(-3.07033e-10 0.000746597 7.67115e-14)
(-3.05236e-10 0.000748625 7.60683e-14)
(-3.09395e-10 0.000757792 1.38218e-13)
(-3.14344e-10 0.000767822 1.40701e-13)
(-3.19352e-10 0.000777851 1.38806e-13)
(-3.23458e-10 0.000787009 7.66865e-14)
(-3.2172e-10 0.000789036 7.60565e-14)
(-3.25825e-10 0.000798204 1.38195e-13)
(-3.30826e-10 0.000808234 1.4067e-13)
(-3.35781e-10 0.000818262 1.38741e-13)
(-3.39941e-10 0.000827421 7.6672e-14)
(-3.38145e-10 0.000829448 7.60233e-14)
(-3.42317e-10 0.000838615 1.38213e-13)
(-3.4724e-10 0.000848645 1.40588e-13)
(-3.52287e-10 0.000858674 1.38753e-13)
(-3.56337e-10 0.000867832 7.65675e-14)
(-3.54674e-10 0.00086986 7.61075e-14)
(-3.58687e-10 0.000879027 1.38087e-13)
(-3.63802e-10 0.000889057 1.40687e-13)
(-3.68614e-10 0.000899086 1.38555e-13)
(-3.72948e-10 0.000908244 7.67269e-14)
(-3.70942e-10 0.000910271 7.58762e-14)
(-3.75372e-10 0.000919438 1.38345e-13)
(-3.79981e-10 0.000929468 1.40327e-13)
(-3.85407e-10 0.000939497 1.38916e-13)
(-3.88996e-10 0.000948656 7.62189e-14)
(-3.87892e-10 0.000950683 7.6456e-14)
(-3.91232e-10 0.00095985 1.37656e-13)
(-3.97162e-10 0.000969884 1.41748e-13)
(-4.01062e-10 0.000979978 1.42042e-13)
(-4.06996e-10 0.000990011 1.38379e-13)
(-4.10344e-10 0.00099917 7.71203e-14)
(-4.09224e-10 0.0010012 7.58341e-14)
(-4.12821e-10 0.00101036 1.38684e-13)
(-4.18237e-10 0.00102039 1.40549e-13)
(-4.22861e-10 0.00103042 1.39027e-13)
(-4.27286e-10 0.00103958 7.64982e-14)
(-4.25279e-10 0.00104161 7.63134e-14)
(-4.29608e-10 0.00105078 1.38257e-13)
(-4.34422e-10 0.00106081 1.40849e-13)
(-4.39539e-10 0.00107083 1.38713e-13)
(-4.43559e-10 0.00107999 7.66975e-14)
(-4.41886e-10 0.00108202 7.61198e-14)
(-4.45942e-10 0.00109119 1.38388e-13)
(-4.50979e-10 0.00110122 1.40694e-13)
(-4.55914e-10 0.00111125 1.38779e-13)
(-4.60081e-10 0.00112041 7.65885e-14)
(-4.58289e-10 0.00112243 7.61822e-14)
(-4.62442e-10 0.0011316 1.38311e-13)
(-4.674e-10 0.00114163 1.40713e-13)
(-4.72397e-10 0.00115166 1.38706e-13)
(-4.76515e-10 0.00116082 7.65988e-14)
(-4.74762e-10 0.00116284 7.61476e-14)
(-4.78886e-10 0.00117201 1.38316e-13)
(-4.83865e-10 0.00118204 1.40666e-13)
(-4.88849e-10 0.00119207 1.38694e-13)
(-4.92972e-10 0.00120123 7.65587e-14)
(-4.91221e-10 0.00120326 7.61603e-14)
(-4.95337e-10 0.00121242 1.38279e-13)
(-5.0033e-10 0.00122245 1.40664e-13)
(-5.05292e-10 0.00123248 1.38639e-13)
(-5.09446e-10 0.00124164 7.65677e-14)
(-5.07655e-10 0.00124367 7.61207e-14)
(-5.11823e-10 0.00125283 1.38302e-13)
(-5.1675e-10 0.00126286 1.40593e-13)
(-5.21793e-10 0.00127289 1.3867e-13)
(-5.25846e-10 0.00128205 7.64785e-14)
(-5.2418e-10 0.00128408 7.6201e-14)
(-5.28195e-10 0.00129324 1.38183e-13)
(-5.3331e-10 0.00130327 1.40698e-13)
(-5.38123e-10 0.0013133 1.38491e-13)
(-5.42456e-10 0.00132246 7.66466e-14)
(-5.4045e-10 0.00132449 7.59714e-14)
(-5.44879e-10 0.00133366 1.3844e-13)
(-5.4949e-10 0.00134369 1.4035e-13)
(-5.54915e-10 0.00135372 1.38863e-13)
(-5.58505e-10 0.00136288 7.61514e-14)
(-5.57399e-10 0.0013649 7.6548e-14)
(-5.60741e-10 0.00137407 1.37753e-13)
(-5.66671e-10 0.0013841 1.41777e-13)
(-5.70571e-10 0.0013942 1.41986e-13)
(-5.76504e-10 0.00140423 1.38258e-13)
(-5.79851e-10 0.00141339 7.70172e-14)
(-5.78734e-10 0.00141542 7.58791e-14)
(-5.8233e-10 0.00142458 1.38703e-13)
(-5.87748e-10 0.00143461 1.40504e-13)
(-5.92369e-10 0.00144464 1.38922e-13)
(-5.96795e-10 0.0014538 7.64058e-14)
(-5.94788e-10 0.00145583 7.63604e-14)
(-5.99118e-10 0.00146499 1.38282e-13)
(-6.03931e-10 0.00147502 1.40815e-13)
(-6.09049e-10 0.00148505 1.38621e-13)
(-6.13067e-10 0.00149421 7.6616e-14)
(-6.11397e-10 0.00149624 7.61671e-14)
(-6.1545e-10 0.00150541 1.38419e-13)
(-6.2049e-10 0.00151544 1.40669e-13)
(-6.25421e-10 0.00152546 1.38699e-13)
(-6.29592e-10 0.00153462 7.65177e-14)
(-6.27796e-10 0.00153665 7.62273e-14)
(-6.31955e-10 0.00154582 1.3835e-13)
(-6.36906e-10 0.00155585 1.40691e-13)
(-6.41912e-10 0.00156588 1.38645e-13)
(-6.46018e-10 0.00157504 7.65253e-14)
(-6.4428e-10 0.00157706 7.62067e-14)
(-6.48385e-10 0.00158623 1.38342e-13)
(-6.53388e-10 0.00159626 1.40673e-13)
(-6.58342e-10 0.00160629 1.38615e-13)
(-6.62502e-10 0.00161545 7.65262e-14)
(-6.60706e-10 0.00161748 7.6178e-14)
(-6.64878e-10 0.00162664 1.3836e-13)
(-6.69803e-10 0.00163667 1.40613e-13)
(-6.74848e-10 0.0016467 1.38648e-13)
(-6.78899e-10 0.00165586 7.64461e-14)
(-6.77234e-10 0.00165789 7.62554e-14)
(-6.81249e-10 0.00166705 1.38245e-13)
(-6.86364e-10 0.00167708 1.40721e-13)
(-6.91177e-10 0.00168711 1.38476e-13)
(-6.9551e-10 0.00169627 7.66185e-14)
(-6.93504e-10 0.0016983 7.60256e-14)
(-6.97933e-10 0.00170746 1.38504e-13)
(-7.02545e-10 0.00171749 1.40376e-13)
(-7.07969e-10 0.00172752 1.38855e-13)
(-7.1156e-10 0.00173668 7.61259e-14)
(-7.10452e-10 0.00173871 7.66038e-14)
(-7.13795e-10 0.00174788 1.37816e-13)
(-7.19725e-10 0.00175791 1.41808e-13)
(-7.23626e-10 0.001768 1.41973e-13)
(-7.29558e-10 0.00177804 1.38215e-13)
(-7.32905e-10 0.0017872 7.69731e-14)
(-7.31788e-10 0.00178922 7.59116e-14)
(-7.35384e-10 0.00179839 1.38728e-13)
(-7.40802e-10 0.00180842 1.40497e-13)
(-7.45423e-10 0.00181845 1.38883e-13)
(-7.49849e-10 0.00182761 7.63678e-14)
(-7.47843e-10 0.00182964 7.63926e-14)
(-7.52172e-10 0.0018388 1.38311e-13)
(-7.56986e-10 0.00184883 1.40813e-13)
(-7.62103e-10 0.00185886 1.38588e-13)
(-7.66122e-10 0.00186802 7.65825e-14)
(-7.6445e-10 0.00187005 7.61992e-14)
(-7.68505e-10 0.00187921 1.38451e-13)
(-7.73544e-10 0.00188924 1.40669e-13)
(-7.78477e-10 0.00189927 1.38674e-13)
(-7.82645e-10 0.00190843 7.64844e-14)
(-7.80853e-10 0.00191046 7.62645e-14)
(-7.85006e-10 0.00191962 1.38379e-13)
(-7.89965e-10 0.00192965 1.40702e-13)
(-7.94961e-10 0.00193968 1.38615e-13)
(-7.99079e-10 0.00194884 7.65074e-14)
(-7.97326e-10 0.00195087 7.62296e-14)
(-8.01451e-10 0.00196004 1.38392e-13)
(-8.0643e-10 0.00197007 1.40664e-13)
(-8.11413e-10 0.00198009 1.38619e-13)
(-8.15537e-10 0.00198926 7.64767e-14)
(-8.13785e-10 0.00199128 7.62441e-14)
(-8.17902e-10 0.00200045 1.38359e-13)
(-8.22896e-10 0.00201048 1.40672e-13)
(-8.27857e-10 0.00202051 1.38577e-13)
(-8.32011e-10 0.00202967 7.64956e-14)
(-8.30219e-10 0.00203169 7.62046e-14)
(-8.34388e-10 0.00204086 1.38388e-13)
(-8.39316e-10 0.00205089 1.4061e-13)
(-8.44358e-10 0.00206092 1.3862e-13)
(-8.48412e-10 0.00207008 7.64146e-14)
(-8.46745e-10 0.00207211 7.62857e-14)
(-8.50761e-10 0.00208127 1.38272e-13)
(-8.55876e-10 0.0020913 1.40723e-13)
(-8.60689e-10 0.00210133 1.38451e-13)
(-8.65021e-10 0.00211049 7.65908e-14)
(-8.63015e-10 0.00211252 7.60559e-14)
(-8.67444e-10 0.00212168 1.38534e-13)
(-8.72057e-10 0.00213171 1.4038e-13)
(-8.7748e-10 0.00214174 1.38834e-13)
(-8.81072e-10 0.0021509 7.6101e-14)
(-8.79964e-10 0.00215293 7.66347e-14)
(-8.83306e-10 0.00216209 1.37847e-13)
(-8.89237e-10 0.00217213 1.41816e-13)
(-8.93137e-10 0.00218222 1.4195e-13)
(-8.9907e-10 0.00219226 1.38169e-13)
(-9.02416e-10 0.00220142 7.69349e-14)
(-9.013e-10 0.00220344 7.59266e-14)
(-9.04896e-10 0.00221261 1.38733e-13)
(-9.10314e-10 0.00222264 1.40478e-13)
(-9.14934e-10 0.00223267 1.38842e-13)
(-9.19361e-10 0.00224183 7.63326e-14)
(-9.17354e-10 0.00224386 7.64087e-14)
(-9.21684e-10 0.00225302 1.38317e-13)
(-9.26498e-10 0.00226305 1.40798e-13)
(-9.31615e-10 0.00227308 1.38551e-13)
(-9.35632e-10 0.00228224 7.65502e-14)
(-9.33963e-10 0.00228427 7.62164e-14)
(-9.38016e-10 0.00229343 1.3846e-13)
(-9.43057e-10 0.00230346 1.40658e-13)
(-9.47987e-10 0.00231349 1.38639e-13)
(-9.52159e-10 0.00232265 7.64574e-14)
(-9.50362e-10 0.00232468 7.62789e-14)
(-9.54521e-10 0.00233384 1.38395e-13)
(-9.59473e-10 0.00234387 1.40688e-13)
(-9.64479e-10 0.0023539 1.38593e-13)
(-9.68584e-10 0.00236306 7.64721e-14)
(-9.66847e-10 0.00236509 7.62584e-14)
(-9.70952e-10 0.00237425 1.38392e-13)
(-9.75955e-10 0.00238428 1.40675e-13)
(-9.80909e-10 0.00239431 1.38573e-13)
(-9.85069e-10 0.00240347 7.64773e-14)
(-9.83272e-10 0.0024055 7.6232e-14)
(-9.87444e-10 0.00241467 1.38412e-13)
(-9.92371e-10 0.0024247 1.40622e-13)
(-9.97415e-10 0.00243473 1.38611e-13)
(-1.00147e-09 0.00244389 7.64035e-14)
(-9.998e-10 0.00244591 7.6309e-14)
(-1.00382e-09 0.00245508 1.38302e-13)
(-1.00893e-09 0.00246511 1.40734e-13)
(-1.01374e-09 0.00247514 1.38448e-13)
(-1.01808e-09 0.0024843 7.65795e-14)
(-1.01607e-09 0.00248633 7.6081e-14)
(-1.0205e-09 0.00249549 1.38563e-13)
(-1.02511e-09 0.00250552 1.40395e-13)
(-1.03054e-09 0.00251555 1.38832e-13)
(-1.03413e-09 0.00252471 7.60917e-14)
(-1.03302e-09 0.00252674 7.666e-14)
(-1.03636e-09 0.0025359 1.37878e-13)
(-1.04229e-09 0.00254593 1.41831e-13)
(-1.04619e-09 0.00255603 1.41947e-13)
(-1.05213e-09 0.00256606 1.38152e-13)
(-1.05547e-09 0.00257522 7.69169e-14)
(-1.05436e-09 0.00257725 7.59419e-14)
(-1.05795e-09 0.00258642 1.38746e-13)
(-1.06337e-09 0.00259645 1.40477e-13)
(-1.06799e-09 0.00260647 1.38827e-13)
(-1.07242e-09 0.00261564 7.63161e-14)
(-1.07041e-09 0.00261766 7.6425e-14)
(-1.07474e-09 0.00262683 1.38332e-13)
(-1.07955e-09 0.00263686 1.40799e-13)
(-1.08467e-09 0.00264689 1.38537e-13)
(-1.08869e-09 0.00265605 7.65368e-14)
(-1.08702e-09 0.00265807 7.62313e-14)
(-1.09107e-09 0.00266724 1.38478e-13)
(-1.09611e-09 0.00267727 1.40659e-13)
(-1.10104e-09 0.0026873 1.38631e-13)
(-1.10521e-09 0.00269646 7.6441e-14)
(-1.10342e-09 0.00269849 7.62998e-14)
(-1.10757e-09 0.00270765 1.38407e-13)
(-1.11253e-09 0.00271768 1.40699e-13)
(-1.11753e-09 0.00272771 1.38576e-13)
(-1.12165e-09 0.00273687 7.64698e-14)
(-1.11989e-09 0.0027389 7.6264e-14)
(-1.12402e-09 0.00274806 1.38425e-13)
(-1.129e-09 0.00275809 1.40663e-13)
(-1.13398e-09 0.00276812 1.38588e-13)
(-1.1381e-09 0.00277728 7.64407e-14)
(-1.13635e-09 0.00277931 7.62816e-14)
(-1.14047e-09 0.00278847 1.38393e-13)
(-1.14546e-09 0.0027985 1.40677e-13)
(-1.15042e-09 0.00280853 1.38549e-13)
(-1.15458e-09 0.00281769 7.64651e-14)
(-1.15279e-09 0.00281972 7.62409e-14)
(-1.15696e-09 0.00282889 1.38427e-13)
(-1.16188e-09 0.00283891 1.40616e-13)
(-1.16693e-09 0.00284894 1.38598e-13)
(-1.17098e-09 0.00285811 7.63851e-14)
(-1.16931e-09 0.00286013 7.63251e-14)
(-1.17333e-09 0.0028693 1.38312e-13)
(-1.17844e-09 0.00287933 1.40735e-13)
(-1.18326e-09 0.00288936 1.38432e-13)
(-1.18759e-09 0.00289852 7.65668e-14)
(-1.18558e-09 0.00290054 7.60935e-14)
(-1.19001e-09 0.00290971 1.38578e-13)
(-1.19463e-09 0.00291974 1.40394e-13)
(-1.20005e-09 0.00292977 1.38822e-13)
(-1.20364e-09 0.00293893 7.60767e-14)
(-1.20253e-09 0.00294096 7.66765e-14)
(-1.20587e-09 0.00295012 1.3789e-13)
(-1.2118e-09 0.00296015 1.41835e-13)
(-1.21571e-09 0.00297025 1.41932e-13)
(-1.22164e-09 0.00298028 1.38129e-13)
(-1.22498e-09 0.00298944 7.68949e-14)
(-1.22387e-09 0.00299147 7.59506e-14)
(-1.22746e-09 0.00300063 1.38745e-13)
(-1.23288e-09 0.00301066 1.40468e-13)
(-1.2375e-09 0.00302069 1.38802e-13)
(-1.24193e-09 0.00302985 7.62992e-14)
(-1.23992e-09 0.00303188 7.64306e-14)
(-1.24425e-09 0.00304105 1.38336e-13)
(-1.24907e-09 0.00305108 1.40788e-13)
(-1.25418e-09 0.0030611 1.38519e-13)
(-1.2582e-09 0.00307027 7.65168e-14)
(-1.25653e-09 0.00307229 7.62421e-14)
(-1.26058e-09 0.00308146 1.38478e-13)
(-1.26563e-09 0.00309149 1.40655e-13)
(-1.27055e-09 0.00310152 1.38609e-13)
(-1.27473e-09 0.00311068 7.64294e-14)
(-1.27293e-09 0.00311271 7.63029e-14)
(-1.27709e-09 0.00312187 1.38418e-13)
(-1.28204e-09 0.0031319 1.40685e-13)
(-1.28705e-09 0.00314193 1.38569e-13)
(-1.29115e-09 0.00315109 7.6444e-14)
(-1.28941e-09 0.00315312 7.6286e-14)
(-1.29352e-09 0.00316228 1.38416e-13)
(-1.29852e-09 0.00317231 1.40677e-13)
(-1.30348e-09 0.00318234 1.3855e-13)
(-1.30764e-09 0.0031915 7.64544e-14)
(-1.30584e-09 0.00319353 7.62577e-14)
(-1.31001e-09 0.00320269 1.38441e-13)
(-1.31494e-09 0.00321272 1.40625e-13)
(-1.31998e-09 0.00322275 1.38595e-13)
(-1.32403e-09 0.00323191 7.63801e-14)
(-1.32237e-09 0.00323394 7.63383e-14)
(-1.32638e-09 0.0032431 1.38329e-13)
(-1.3315e-09 0.00325313 1.40743e-13)
(-1.33631e-09 0.00326316 1.38431e-13)
(-1.34064e-09 0.00327232 7.65612e-14)
(-1.33864e-09 0.00327435 7.61081e-14)
(-1.34307e-09 0.00328352 1.38596e-13)
(-1.34768e-09 0.00329355 1.40403e-13)
(-1.3531e-09 0.00330357 1.38823e-13)
(-1.3567e-09 0.00331274 7.60719e-14)
(-1.35559e-09 0.00331476 7.66915e-14)
(-1.35893e-09 0.00332393 1.37908e-13)
(-1.36486e-09 0.00333396 1.41846e-13)
(-1.36876e-09 0.00334406 1.41931e-13)
(-1.37469e-09 0.00335409 1.3812e-13)
(-1.37804e-09 0.00336325 7.68853e-14)
(-1.37692e-09 0.00336528 7.596e-14)
(-1.38052e-09 0.00337444 1.38754e-13)
(-1.38594e-09 0.00338447 1.40468e-13)
(-1.39056e-09 0.0033945 1.38795e-13)
(-1.39498e-09 0.00340366 7.62905e-14)
(-1.39298e-09 0.00340569 7.64405e-14)
(-1.39731e-09 0.00341485 1.38345e-13)
(-1.40212e-09 0.00342488 1.4079e-13)
(-1.40724e-09 0.00343491 1.38512e-13)
(-1.41126e-09 0.00344407 7.651e-14)
(-1.40959e-09 0.0034461 7.62509e-14)
(-1.41364e-09 0.00345526 1.3849e-13)
(-1.41868e-09 0.00346529 1.40655e-13)
(-1.42361e-09 0.00347532 1.38606e-13)
(-1.42778e-09 0.00348449 7.64194e-14)
(-1.42599e-09 0.00348651 7.63171e-14)
(-1.43014e-09 0.00349568 1.38425e-13)
(-1.4351e-09 0.00350571 1.40694e-13)
(-1.4401e-09 0.00351574 1.38557e-13)
(-1.44422e-09 0.0035249 7.6447e-14)
(-1.44246e-09 0.00352692 7.62853e-14)
(-1.44659e-09 0.00353609 1.38441e-13)
(-1.45157e-09 0.00354612 1.40665e-13)
(-1.45655e-09 0.00355615 1.38568e-13)
(-1.46067e-09 0.00356531 7.64229e-14)
(-1.45892e-09 0.00356734 7.63004e-14)
(-1.46304e-09 0.0035765 1.38415e-13)
(-1.46803e-09 0.00358653 1.40678e-13)
(-1.47299e-09 0.00359656 1.38535e-13)
(-1.47715e-09 0.00360572 7.64458e-14)
(-1.47536e-09 0.00360775 7.62637e-14)
(-1.47952e-09 0.00361691 1.38447e-13)
(-1.48445e-09 0.00362694 1.40622e-13)
(-1.48949e-09 0.00363697 1.38584e-13)
(-1.49355e-09 0.00364613 7.63707e-14)
(-1.49188e-09 0.00364816 7.63452e-14)
(-1.4959e-09 0.00365732 1.38337e-13)
(-1.50101e-09 0.00366735 1.4074e-13)
(-1.50583e-09 0.00367738 1.38423e-13)
(-1.51016e-09 0.00368654 7.65507e-14)
(-1.50815e-09 0.00368857 7.61176e-14)
(-1.51258e-09 0.00369773 1.38601e-13)
(-1.51719e-09 0.00370776 1.40404e-13)
(-1.52262e-09 0.00371779 1.38813e-13)
(-1.52621e-09 0.00372695 7.6065e-14)
(-1.5251e-09 0.00372898 7.66983e-14)
(-1.52844e-09 0.00373815 1.37917e-13)
(-1.53437e-09 0.00374818 1.41844e-13)
(-1.53827e-09 0.00375827 1.41924e-13)
(-1.54421e-09 0.00376831 1.38103e-13)
(-1.54755e-09 0.00377747 7.68741e-14)
(-1.54644e-09 0.0037795 7.59622e-14)
(-1.55003e-09 0.00378866 1.38755e-13)
(-1.55545e-09 0.00379869 1.40459e-13)
(-1.56007e-09 0.00380872 1.38781e-13)
(-1.5645e-09 0.00381788 7.6277e-14)
(-1.56249e-09 0.00381991 7.6446e-14)
(-1.56682e-09 0.00382907 1.38344e-13)
(-1.57163e-09 0.0038391 1.40785e-13)
(-1.57675e-09 0.00384913 1.38497e-13)
(-1.58077e-09 0.00385829 7.64998e-14)
(-1.5791e-09 0.00386032 7.62547e-14)
(-1.58315e-09 0.00386948 1.38492e-13)
(-1.58819e-09 0.00387951 1.4065e-13)
(-1.59312e-09 0.00388954 1.38593e-13)
(-1.5973e-09 0.0038987 7.64101e-14)
(-1.5955e-09 0.00390073 7.63199e-14)
(-1.59966e-09 0.0039099 1.3843e-13)
(-1.60461e-09 0.00391992 1.40686e-13)
(-1.60962e-09 0.00392995 1.38552e-13)
(-1.61372e-09 0.00393912 7.64299e-14)
(-1.61198e-09 0.00394114 7.63e-14)
(-1.61609e-09 0.00395031 1.38432e-13)
(-1.62109e-09 0.00396034 1.40676e-13)
(-1.62605e-09 0.00397037 1.38539e-13)
(-1.63021e-09 0.00397953 7.64378e-14)
(-1.62841e-09 0.00398155 7.6276e-14)
(-1.63258e-09 0.00399072 1.38455e-13)
(-1.63751e-09 0.00400075 1.4063e-13)
(-1.64255e-09 0.00401078 1.38582e-13)
(-1.6466e-09 0.00401994 7.63687e-14)
(-1.64494e-09 0.00402197 7.63534e-14)
(-1.64895e-09 0.00403113 1.38349e-13)
(-1.65407e-09 0.00404116 1.40745e-13)
(-1.65888e-09 0.00405119 1.38424e-13)
(-1.66321e-09 0.00406035 7.65473e-14)
(-1.66121e-09 0.00406238 7.61275e-14)
(-1.66564e-09 0.00407154 1.38613e-13)
(-1.67025e-09 0.00408157 1.4041e-13)
(-1.67567e-09 0.0040916 1.38814e-13)
(-1.67927e-09 0.00410076 7.60627e-14)
(-1.67816e-09 0.00410279 7.6708e-14)
(-1.6815e-09 0.00411195 1.3793e-13)
(-1.68743e-09 0.00412199 1.41852e-13)
(-1.69133e-09 0.00413208 1.41924e-13)
(-1.69726e-09 0.00414211 1.38098e-13)
(-1.70061e-09 0.00415128 7.68686e-14)
(-1.69949e-09 0.0041533 7.59684e-14)
(-1.70309e-09 0.00416247 1.38762e-13)
(-1.70851e-09 0.0041725 1.4046e-13)
(-1.71313e-09 0.00418253 1.38778e-13)
(-1.71755e-09 0.00419169 7.62716e-14)
(-1.71555e-09 0.00419372 7.64531e-14)
(-1.71988e-09 0.00420288 1.38351e-13)
(-1.72469e-09 0.00421291 1.40787e-13)
(-1.72981e-09 0.00422294 1.38493e-13)
(-1.73383e-09 0.0042321 7.64963e-14)
(-1.73216e-09 0.00423413 7.62602e-14)
(-1.73621e-09 0.00424329 1.38501e-13)
(-1.74125e-09 0.00425332 1.4065e-13)
(-1.74618e-09 0.00426335 1.38593e-13)
(-1.75035e-09 0.00427251 7.64027e-14)
(-1.74856e-09 0.00427454 7.6331e-14)
(-1.75271e-09 0.0042837 1.38433e-13)
(-1.75767e-09 0.00429373 1.40695e-13)
(-1.76267e-09 0.00430376 1.38542e-13)
(-1.76678e-09 0.00431292 7.64356e-14)
(-1.76503e-09 0.00431495 7.62958e-14)
(-1.76916e-09 0.00432411 1.38455e-13)
(-1.77414e-09 0.00433414 1.40663e-13)
(-1.77912e-09 0.00434417 1.38559e-13)
(-1.78324e-09 0.00435333 7.64085e-14)
(-1.78149e-09 0.00435536 7.63155e-14)
(-1.78561e-09 0.00436453 1.38425e-13)
(-1.7906e-09 0.00437456 1.40682e-13)
(-1.79556e-09 0.00438458 1.38523e-13)
(-1.79972e-09 0.00439375 7.64365e-14)
(-1.79792e-09 0.00439577 7.62752e-14)
(-1.80209e-09 0.00440494 1.38463e-13)
(-1.80702e-09 0.00441497 1.40623e-13)
(-1.81206e-09 0.004425 1.38578e-13)
(-1.81612e-09 0.00443416 7.63583e-14)
(-1.81445e-09 0.00443619 7.63614e-14)
(-1.81847e-09 0.00444535 1.38349e-13)
(-1.82358e-09 0.00445538 1.40746e-13)
(-1.8284e-09 0.00446541 1.38415e-13)
(-1.83273e-09 0.00447457 7.65435e-14)
(-1.83072e-09 0.0044766 7.61299e-14)
(-1.83515e-09 0.00448576 1.3862e-13)
(-1.83976e-09 0.00449579 1.40407e-13)
(-1.84519e-09 0.00450582 1.3881e-13)
(-1.84878e-09 0.00451498 7.60542e-14)
(-1.84767e-09 0.00451701 7.67158e-14)
(-1.85101e-09 0.00452617 1.37932e-13)
(-1.85694e-09 0.00453621 1.41854e-13)
(-1.86084e-09 0.0045463 1.41915e-13)
(-1.86678e-09 0.00455633 1.38089e-13)
(-1.87012e-09 0.0045655 7.68572e-14)
(-1.86901e-09 0.00456752 7.59731e-14)
(-1.8726e-09 0.00457669 1.38758e-13)
(-1.87802e-09 0.00458672 1.40457e-13)
(-1.88264e-09 0.00459675 1.38765e-13)
(-1.88707e-09 0.00460591 7.62659e-14)
(-1.88506e-09 0.00460793 7.64528e-14)
(-1.88939e-09 0.0046171 1.38353e-13)
(-1.8942e-09 0.00462713 1.40779e-13)
(-1.89932e-09 0.00463716 1.38486e-13)
(-1.90334e-09 0.00464632 7.64851e-14)
(-1.90167e-09 0.00464835 7.62665e-14)
(-1.90572e-09 0.00465751 1.38497e-13)
(-1.91076e-09 0.00466754 1.4065e-13)
(-1.91569e-09 0.00467757 1.38579e-13)
(-1.91986e-09 0.00468673 7.64008e-14)
(-1.91807e-09 0.00468876 7.63278e-14)
(-1.92223e-09 0.00469792 1.38441e-13)
(-1.92718e-09 0.00470795 1.40683e-13)
(-1.93218e-09 0.00471798 1.38544e-13)
(-1.93629e-09 0.00472714 7.6417e-14)
(-1.93455e-09 0.00472917 7.63128e-14)
(-1.93866e-09 0.00473833 1.3844e-13)
(-1.94366e-09 0.00474836 1.40679e-13)
(-1.94862e-09 0.00475839 1.38528e-13)
(-1.95278e-09 0.00476755 7.64303e-14)
(-1.95098e-09 0.00476958 7.62848e-14)
(-1.95515e-09 0.00477874 1.38468e-13)
(-1.96008e-09 0.00478877 1.40629e-13)
(-1.96512e-09 0.0047988 1.38577e-13)
(-1.96917e-09 0.00480797 7.63574e-14)
(-1.96751e-09 0.00480999 7.63672e-14)
(-1.97152e-09 0.00481916 1.38358e-13)
(-1.97664e-09 0.00482919 1.4075e-13)
(-1.98145e-09 0.00483921 1.38416e-13)
(-1.98578e-09 0.00484838 7.65415e-14)
(-1.98378e-09 0.0048504 7.6137e-14)
(-1.9882e-09 0.00485957 1.38628e-13)
(-1.99282e-09 0.0048696 1.40412e-13)
(-1.99824e-09 0.00487963 1.38811e-13)
(-2.00183e-09 0.00488879 7.60527e-14)
(-2.00072e-09 0.00489082 7.67229e-14)
(-2.00407e-09 0.00489998 1.37941e-13)
(-2.01e-09 0.00491001 1.41859e-13)
(-2.0139e-09 0.00492011 1.41916e-13)
(-2.01983e-09 0.00493014 1.38087e-13)
(-2.02318e-09 0.0049393 7.68535e-14)
(-2.02206e-09 0.00494133 7.59778e-14)
(-2.02566e-09 0.00495049 1.38763e-13)
(-2.03108e-09 0.00496052 1.40458e-13)
(-2.0357e-09 0.00497055 1.38762e-13)
(-2.04012e-09 0.00497971 7.62624e-14)
(-2.03812e-09 0.00498174 7.6458e-14)
(-2.04245e-09 0.00499091 1.38358e-13)
(-2.04726e-09 0.00500093 1.40781e-13)
(-2.05238e-09 0.00501096 1.38484e-13)
(-2.05639e-09 0.00502013 7.6483e-14)
(-2.05472e-09 0.00502215 7.62704e-14)
(-2.05878e-09 0.00503132 1.38505e-13)
(-2.06382e-09 0.00504135 1.40651e-13)
(-2.06875e-09 0.00505138 1.3858e-13)
(-2.07292e-09 0.00506054 7.63951e-14)
(-2.07113e-09 0.00506257 7.63368e-14)
(-2.07528e-09 0.00507173 1.38442e-13)
(-2.08024e-09 0.00508176 1.40691e-13)
(-2.08524e-09 0.00509179 1.38536e-13)
(-2.08935e-09 0.00510095 7.64238e-14)
(-2.0876e-09 0.00510298 7.63069e-14)
(-2.09172e-09 0.00511214 1.3846e-13)
(-2.09671e-09 0.00512217 1.40665e-13)
(-2.10169e-09 0.0051322 1.38548e-13)
(-2.10581e-09 0.00514136 7.64024e-14)
(-2.10406e-09 0.00514339 7.63221e-14)
(-2.10818e-09 0.00515255 1.38436e-13)
(-2.11317e-09 0.00516258 1.4068e-13)
(-2.11813e-09 0.00517261 1.38519e-13)
(-2.12229e-09 0.00518177 7.64261e-14)
(-2.12049e-09 0.0051838 7.62872e-14)
(-2.12466e-09 0.00519296 1.3847e-13)
(-2.12959e-09 0.00520299 1.40628e-13)
(-2.13463e-09 0.00521302 1.3857e-13)
(-2.13869e-09 0.00522218 7.63536e-14)
(-2.13702e-09 0.00522421 7.63687e-14)
(-2.14104e-09 0.00523337 1.38362e-13)
(-2.14615e-09 0.0052434 1.40747e-13)
(-2.15096e-09 0.00525343 1.38413e-13)
(-2.1553e-09 0.0052626 7.65345e-14)
(-2.15329e-09 0.00526462 7.61426e-14)
(-2.15772e-09 0.00527379 1.38628e-13)
(-2.16233e-09 0.00528382 1.40413e-13)
(-2.16775e-09 0.00529385 1.38804e-13)
(-2.17135e-09 0.00530301 7.60507e-14)
(-2.17024e-09 0.00530503 7.6724e-14)
(-2.17358e-09 0.0053142 1.37946e-13)
(-2.17951e-09 0.00532423 1.41856e-13)
(-2.18341e-09 0.00533433 1.41913e-13)
(-2.18934e-09 0.00534436 1.38076e-13)
(-2.19269e-09 0.00535352 7.68494e-14)
(-2.19158e-09 0.00535555 7.59767e-14)
(-2.19517e-09 0.00536471 1.38765e-13)
(-2.20059e-09 0.00537474 1.40451e-13)
(-2.20521e-09 0.00538477 1.38757e-13)
(-2.20964e-09 0.00539393 7.62538e-14)
(-2.20763e-09 0.00539596 7.64618e-14)
(-2.21196e-09 0.00540512 1.38355e-13)
(-2.21677e-09 0.00541515 1.40779e-13)
(-2.22189e-09 0.00542518 1.38475e-13)
(-2.22591e-09 0.00543435 7.64788e-14)
(-2.22424e-09 0.00543637 7.62707e-14)
(-2.22829e-09 0.00544554 1.38506e-13)
(-2.23333e-09 0.00545557 1.40646e-13)
(-2.23826e-09 0.00546559 1.38574e-13)
(-2.24243e-09 0.00547476 7.639e-14)
(-2.24064e-09 0.00547678 7.63376e-14)
(-2.2448e-09 0.00548595 1.38445e-13)
(-2.24975e-09 0.00549598 1.40685e-13)
(-2.25475e-09 0.00550601 1.38534e-13)
(-2.25886e-09 0.00551517 7.6412e-14)
(-2.25712e-09 0.0055172 7.63177e-14)
(-2.26123e-09 0.00552636 1.3845e-13)
(-2.26623e-09 0.00553639 1.40677e-13)
(-2.27118e-09 0.00554642 1.38524e-13)
(-2.27534e-09 0.00555558 7.64207e-14)
(-2.27355e-09 0.00555761 7.62953e-14)
(-2.27772e-09 0.00556677 1.38474e-13)
(-2.28265e-09 0.0055768 1.40633e-13)
(-2.28769e-09 0.00558683 1.38569e-13)
(-2.29174e-09 0.00559599 7.63536e-14)
(-2.29008e-09 0.00559802 7.63728e-14)
(-2.29409e-09 0.00560718 1.3837e-13)
(-2.29921e-09 0.00561721 1.4075e-13)
(-2.30402e-09 0.00562724 1.38414e-13)
(-2.30835e-09 0.0056364 7.6533e-14)
(-2.30635e-09 0.00563843 7.61482e-14)
(-2.31077e-09 0.00564759 1.38635e-13)
(-2.31539e-09 0.00565762 1.40417e-13)
(-2.32081e-09 0.00566765 1.38805e-13)
(-2.3244e-09 0.00567681 7.605e-14)
(-2.32329e-09 0.00567884 7.67293e-14)
(-2.32664e-09 0.00568801 1.37953e-13)
(-2.33257e-09 0.00569804 1.4186e-13)
(-2.33647e-09 0.00570813 1.41914e-13)
(-2.3424e-09 0.00571817 1.38074e-13)
(-2.34575e-09 0.00572733 7.6847e-14)
(-2.34463e-09 0.00572936 7.59802e-14)
(-2.34823e-09 0.00573852 1.38769e-13)
(-2.35365e-09 0.00574855 1.40452e-13)
(-2.35826e-09 0.00575858 1.38756e-13)
(-2.36269e-09 0.00576774 7.62512e-14)
(-2.36069e-09 0.00576977 7.64661e-14)
(-2.36502e-09 0.00577893 1.38359e-13)
(-2.36983e-09 0.00578896 1.40782e-13)
(-2.37495e-09 0.00579899 1.38473e-13)
(-2.37896e-09 0.00580815 7.64779e-14)
(-2.37729e-09 0.00581018 7.62733e-14)
(-2.38135e-09 0.00581934 1.38512e-13)
(-2.38639e-09 0.00582937 1.40646e-13)
(-2.39132e-09 0.0058394 1.38576e-13)
(-2.39549e-09 0.00584856 7.6385e-14)
(-2.3937e-09 0.00585059 7.63457e-14)
(-2.39785e-09 0.00585975 1.38445e-13)
(-2.40281e-09 0.00586978 1.40694e-13)
(-2.40781e-09 0.00587981 1.38526e-13)
(-2.41192e-09 0.00588898 7.64198e-14)
(-2.41017e-09 0.005891 7.63104e-14)
(-2.41429e-09 0.00590017 1.38469e-13)
(-2.41928e-09 0.0059102 1.40662e-13)
(-2.42426e-09 0.00592023 1.38545e-13)
(-2.42838e-09 0.00592939 7.63932e-14)
(-2.42663e-09 0.00593141 7.63316e-14)
(-2.43075e-09 0.00594058 1.3844e-13)
(-2.43574e-09 0.00595061 1.40684e-13)
(-2.4407e-09 0.00596064 1.38511e-13)
(-2.44485e-09 0.0059698 7.64232e-14)
(-2.44306e-09 0.00597183 7.62913e-14)
(-2.44723e-09 0.00598099 1.3848e-13)
(-2.45216e-09 0.00599102 1.40626e-13)
(-2.4572e-09 0.00600105 1.38569e-13)
(-2.46126e-09 0.00601021 7.63454e-14)
(-2.45959e-09 0.00601224 7.63789e-14)
(-2.4636e-09 0.0060214 1.38367e-13)
(-2.46872e-09 0.00603143 1.40752e-13)
(-2.47353e-09 0.00604146 1.38406e-13)
(-2.47787e-09 0.00605062 7.65325e-14)
(-2.47586e-09 0.00605265 7.61472e-14)
(-2.48029e-09 0.00606181 1.3864e-13)
(-2.4849e-09 0.00607184 1.40413e-13)
(-2.49032e-09 0.00608187 1.38805e-13)
(-2.49392e-09 0.00609103 7.60433e-14)
(-2.49281e-09 0.00609306 7.67349e-14)
(-2.49615e-09 0.00610222 1.37952e-13)
(-2.50208e-09 0.00611226 1.41863e-13)
(-2.50598e-09 0.00612235 1.41907e-13)
(-2.51191e-09 0.00613239 1.3807e-13)
(-2.51526e-09 0.00614155 7.68387e-14)
(-2.51415e-09 0.00614358 7.59842e-14)
(-2.51774e-09 0.00615274 1.38764e-13)
(-2.52316e-09 0.00616277 1.40451e-13)
(-2.52778e-09 0.0061728 1.38746e-13)
(-2.53221e-09 0.00618196 7.62497e-14)
(-2.5302e-09 0.00618399 7.64636e-14)
(-2.53453e-09 0.00619315 1.38362e-13)
(-2.53934e-09 0.00620318 1.40775e-13)
(-2.54446e-09 0.00621321 1.38471e-13)
(-2.54848e-09 0.00622237 7.64692e-14)
(-2.54681e-09 0.0062244 7.62788e-14)
(-2.55086e-09 0.00623356 1.38507e-13)
(-2.5559e-09 0.00624359 1.40648e-13)