/*--------------------------------*- C++ -*----------------------------------*\
| =========                 |                                                 |
| \\      /  F ield         | OpenFOAM: The Open Source CFD Toolbox           |
|  \\    /   O peration     | Version:  2206                                  |
|   \\  /    A nd           | Website:  www.openfoam.com                      |
|    \\/     M anipulation  |                                                 |
\*---------------------------------------------------------------------------*/
FoamFile
{
    version     2.0;
    format      ascii;
    arch        "LSB;label=32;scalar=64";
    class       volVectorField;
    location    "260";
    object      U;
}
// * * * * * * * * * * * * * * * * * * * * * * * * * * * * * * * * * * * * * //

dimensions      [0 1 -1 0 0 0 0];

internalField   nonuniform List<vector> 
100000
(
(-3.75727e-12 6.37471e-06 1.18715e-12)
(-3.2496e-12 1.18039e-05 6.587e-14)
(-7.73866e-12 2.15469e-05 1.49233e-13)
(-1.41424e-11 3.20145e-05 1.55272e-13)
(-1.72529e-11 4.1516e-05 9.28977e-14)
(-1.6339e-11 4.38792e-05 7.2381e-14)
(-2.0102e-11 5.35928e-05 1.40337e-13)
(-2.56303e-11 6.4191e-05 1.44982e-13)
(-3.0595e-11 7.47729e-05 1.47059e-13)
(-3.51294e-11 8.43569e-05 8.2305e-14)
(-3.32196e-11 8.66565e-05 7.69838e-14)
(-3.76222e-11 9.63452e-05 1.40295e-13)
(-4.27642e-11 0.000106947 1.46064e-13)
(-4.79426e-11 0.000117538 1.45281e-13)
(-5.23384e-11 0.000127145 8.19683e-14)
(-5.04163e-11 0.000129433 7.71121e-14)
(-5.4964e-11 0.000139109 1.42043e-13)
(-5.97869e-11 0.000149712 1.45596e-13)
(-6.54349e-11 0.000160305 1.45457e-13)
(-6.91725e-11 0.000169923 8.07184e-14)
(-6.8098e-11 0.000172207 7.84782e-14)
(-7.15591e-11 0.000181877 1.41691e-13)
(-7.77326e-11 0.000192485 1.47295e-13)
(-8.18047e-11 0.000203164 1.48811e-13)
(-8.8007e-11 0.000213765 1.45708e-13)
(-9.14883e-11 0.00022339 8.20155e-14)
(-9.03548e-11 0.000225672 7.87559e-14)
(-9.4092e-11 0.000235337 1.4411e-13)
(-9.97404e-11 0.000245939 1.47049e-13)
(-1.04569e-10 0.000256535 1.45972e-13)
(-1.09177e-10 0.000266163 8.10956e-14)
(-1.07116e-10 0.000268444 7.93222e-14)
(-1.11624e-10 0.000278106 1.43686e-13)
(-1.16632e-10 0.000288708 1.47193e-13)
(-1.21984e-10 0.000299305 1.45396e-13)
(-1.26155e-10 0.000308936 8.10784e-14)
(-1.24459e-10 0.000311216 7.92035e-14)
(-1.28668e-10 0.000320876 1.43808e-13)
(-1.3392e-10 0.000331477 1.46943e-13)
(-1.39068e-10 0.000342075 1.45258e-13)
(-1.43402e-10 0.000351707 8.08262e-14)
(-1.41575e-10 0.000353987 7.93073e-14)
(-1.45894e-10 0.000363645 1.43742e-13)
(-1.51057e-10 0.000374247 1.46878e-13)
(-1.56272e-10 0.000384844 1.45045e-13)
(-1.60551e-10 0.000394479 8.07144e-14)
(-1.5877e-10 0.000396758 7.93187e-14)
(-1.63056e-10 0.000406415 1.43747e-13)
(-1.68239e-10 0.000417017 1.46778e-13)
(-1.73441e-10 0.000427615 1.44916e-13)
(-1.77722e-10 0.00043725 8.05887e-14)
(-1.75948e-10 0.000439529 7.93606e-14)
(-1.80221e-10 0.000449185 1.43718e-13)
(-1.85426e-10 0.000459786 1.4673e-13)
(-1.90595e-10 0.000470385 1.44774e-13)
(-1.94918e-10 0.000480021 8.05259e-14)
(-1.93092e-10 0.0004823 7.93479e-14)
(-1.97432e-10 0.000491955 1.4375e-13)
(-2.02553e-10 0.000502556 1.46622e-13)
(-2.07824e-10 0.000513155 1.44737e-13)
(-2.1202e-10 0.000522792 8.03751e-14)
(-2.10349e-10 0.000525071 7.94565e-14)
(-2.14503e-10 0.000534726 1.43631e-13)
(-2.19848e-10 0.000545326 1.46708e-13)
(-2.24847e-10 0.000555925 1.44492e-13)
(-2.29369e-10 0.000565563 8.05054e-14)
(-2.27307e-10 0.000567842 7.92366e-14)
(-2.31934e-10 0.000577496 1.43907e-13)
(-2.36709e-10 0.000588097 1.46326e-13)
(-2.42391e-10 0.000598695 1.4483e-13)
(-2.46092e-10 0.000608334 7.99574e-14)
(-2.45017e-10 0.000610613 7.98454e-14)
(-2.48459e-10 0.000620266 1.4322e-13)
(-2.54661e-10 0.000630873 1.47814e-13)
(-2.58709e-10 0.000641553 1.48319e-13)
(-2.64917e-10 0.000652157 1.44425e-13)
(-2.68372e-10 0.000661797 8.09693e-14)
(-2.6727e-10 0.000664076 7.93121e-14)
(-2.70985e-10 0.000673729 1.44459e-13)
(-2.7665e-10 0.000684329 1.46699e-13)
(-2.81451e-10 0.000694928 1.4507e-13)
(-2.86069e-10 0.000704568 8.02798e-14)
(-2.84004e-10 0.000706847 7.98276e-14)
(-2.88519e-10 0.000716499 1.43994e-13)
(-2.9352e-10 0.0007271 1.47004e-13)
(-2.98871e-10 0.000737698 1.447e-13)
(-3.03031e-10 0.000747338 8.04756e-14)
(-3.01347e-10 0.000749617 7.96184e-14)
(-3.05547e-10 0.000759269 1.44134e-13)
(-3.1081e-10 0.00076987 1.46817e-13)
(-3.15941e-10 0.000780469 1.44749e-13)
(-3.20284e-10 0.000790109 8.03373e-14)
(-3.18448e-10 0.000792388 7.96892e-14)
(-3.22778e-10 0.00080204 1.44048e-13)
(-3.27929e-10 0.00081264 1.46822e-13)
(-3.33156e-10 0.000823239 1.44655e-13)
(-3.37413e-10 0.00083288 8.03235e-14)
(-3.35657e-10 0.000835158 7.96673e-14)
(-3.39913e-10 0.00084481 1.44034e-13)
(-3.45135e-10 0.00085541 1.46783e-13)
(-3.5029e-10 0.000866009 1.44595e-13)
(-3.54621e-10 0.00087565 8.03028e-14)
(-3.52786e-10 0.000877929 7.96387e-14)
(-3.57131e-10 0.00088758 1.44048e-13)
(-3.62251e-10 0.000898181 1.46702e-13)
(-3.67522e-10 0.00090878 1.44606e-13)
(-3.71717e-10 0.000918421 8.01968e-14)
(-3.70044e-10 0.0009207 7.97253e-14)
(-3.74198e-10 0.00093035 1.43918e-13)
(-3.79546e-10 0.000940951 1.46805e-13)
(-3.84544e-10 0.00095155 1.444e-13)
(-3.89065e-10 0.000961191 8.03641e-14)
(-3.87001e-10 0.00096347 7.94838e-14)
(-3.91626e-10 0.000973121 1.44188e-13)
(-3.96407e-10 0.000983721 1.4643e-13)
(-4.02085e-10 0.00099432 1.44776e-13)
(-4.05789e-10 0.00100396 7.98369e-14)
(-4.04707e-10 0.00100624 8.00853e-14)
(-4.08152e-10 0.00101589 1.43481e-13)
(-4.14355e-10 0.0010265 1.47935e-13)
(-4.18404e-10 0.00103718 1.48246e-13)
(-4.2461e-10 0.00104778 1.44224e-13)
(-4.28063e-10 0.00105742 8.07769e-14)
(-4.26964e-10 0.0010597 7.94389e-14)
(-4.30678e-10 0.00106935 1.44545e-13)
(-4.36345e-10 0.00107995 1.46657e-13)
(-4.41143e-10 0.00109055 1.44899e-13)
(-4.45761e-10 0.0011002 8.01216e-14)
(-4.43696e-10 0.00110247 7.99471e-14)
(-4.48212e-10 0.00111212 1.44091e-13)
(-4.53214e-10 0.00112272 1.46981e-13)
(-4.58562e-10 0.00113332 1.44561e-13)
(-4.62724e-10 0.00114297 8.0341e-14)
(-4.61038e-10 0.00114524 7.97342e-14)
(-4.65241e-10 0.00115489 1.44239e-13)
(-4.705e-10 0.00116549 1.46808e-13)
(-4.75635e-10 0.00117609 1.44642e-13)
(-4.79972e-10 0.00118574 8.02173e-14)
(-4.78143e-10 0.00118802 7.98091e-14)
(-4.82464e-10 0.00119766 1.44149e-13)
(-4.87627e-10 0.00120827 1.46838e-13)
(-4.92839e-10 0.00121886 1.44556e-13)
(-4.97114e-10 0.00122851 8.02367e-14)
(-4.95335e-10 0.00123079 7.97649e-14)
(-4.99619e-10 0.00124044 1.44162e-13)
(-5.04808e-10 0.00125104 1.46781e-13)
(-5.10003e-10 0.00126163 1.44552e-13)
(-5.14285e-10 0.00127128 8.01878e-14)
(-5.12508e-10 0.00127356 7.97856e-14)
(-5.16782e-10 0.00128321 1.44116e-13)
(-5.21989e-10 0.00129381 1.46786e-13)
(-5.27155e-10 0.00130441 1.44488e-13)
(-5.31477e-10 0.00131405 8.02049e-14)
(-5.29649e-10 0.00131633 7.97366e-14)
(-5.33988e-10 0.00132598 1.44149e-13)
(-5.39115e-10 0.00133658 1.46705e-13)
(-5.4438e-10 0.00134718 1.44528e-13)
(-5.48579e-10 0.00135682 8.01035e-14)
(-5.46902e-10 0.0013591 7.9829e-14)
(-5.51059e-10 0.00136875 1.44016e-13)
(-5.56405e-10 0.00137935 1.46823e-13)
(-5.61405e-10 0.00138995 1.44333e-13)
(-5.65924e-10 0.00139959 8.0288e-14)
(-5.63861e-10 0.00140187 7.95808e-14)
(-5.68484e-10 0.00141152 1.44292e-13)
(-5.73268e-10 0.00142212 1.46453e-13)
(-5.78944e-10 0.00143272 1.44727e-13)
(-5.82649e-10 0.00144236 7.97666e-14)
(-5.81565e-10 0.00144464 8.01856e-14)
(-5.85012e-10 0.00145429 1.43581e-13)
(-5.91214e-10 0.00146489 1.4797e-13)
(-5.95263e-10 0.00147557 1.48186e-13)
(-6.01468e-10 0.00148618 1.44104e-13)
(-6.0492e-10 0.00149582 8.06694e-14)
(-6.03824e-10 0.0014981 7.94894e-14)
(-6.07536e-10 0.00150775 1.44564e-13)
(-6.13205e-10 0.00151835 1.46615e-13)
(-6.18e-10 0.00152895 1.44789e-13)
(-6.2262e-10 0.00153859 8.00304e-14)
(-6.20555e-10 0.00154087 7.99942e-14)
(-6.25072e-10 0.00155052 1.44121e-13)
(-6.30072e-10 0.00156112 1.46945e-13)
(-6.35421e-10 0.00157172 1.4447e-13)
(-6.3958e-10 0.00158136 8.02556e-14)
(-6.37899e-10 0.00158364 7.97867e-14)
(-6.42097e-10 0.00159329 1.44269e-13)
(-6.47362e-10 0.00160389 1.46787e-13)
(-6.5249e-10 0.00161449 1.44557e-13)
(-6.56834e-10 0.00162413 8.01485e-14)
(-6.54997e-10 0.00162641 7.98534e-14)
(-6.59328e-10 0.00163606 1.44194e-13)
(-6.64479e-10 0.00164666 1.46813e-13)
(-6.69705e-10 0.00165726 1.44498e-13)
(-6.73962e-10 0.0016669 8.01581e-14)
(-6.72205e-10 0.00166918 7.98311e-14)
(-6.76462e-10 0.00167883 1.44186e-13)
(-6.81685e-10 0.00168943 1.46794e-13)
(-6.86839e-10 0.00170003 1.44466e-13)
(-6.9117e-10 0.00170967 8.0161e-14)
(-6.89334e-10 0.00171195 7.97986e-14)
(-6.93679e-10 0.0017216 1.44208e-13)
(-6.98801e-10 0.0017322 1.46728e-13)
(-7.0407e-10 0.0017428 1.44505e-13)
(-7.08266e-10 0.00175244 8.00725e-14)
(-7.0659e-10 0.00175472 7.98847e-14)
(-7.10746e-10 0.00176437 1.44081e-13)
(-7.16094e-10 0.00177497 1.46847e-13)
(-7.21093e-10 0.00178557 1.44319e-13)
(-7.25613e-10 0.00179522 8.02591e-14)
(-7.23548e-10 0.00179749 7.96383e-14)
(-7.28171e-10 0.00180714 1.44358e-13)
(-7.32956e-10 0.00181774 1.46481e-13)
(-7.38632e-10 0.00182834 1.44719e-13)
(-7.42338e-10 0.00183799 7.97419e-14)
(-7.41252e-10 0.00184026 8.02434e-14)
(-7.44699e-10 0.00184991 1.43647e-13)
(-7.50902e-10 0.00186052 1.48003e-13)
(-7.54951e-10 0.0018712 1.48174e-13)
(-7.61156e-10 0.0018818 1.44059e-13)
(-7.64608e-10 0.00189145 8.0625e-14)
(-7.63513e-10 0.00189373 7.95227e-14)
(-7.67224e-10 0.00190338 1.44591e-13)
(-7.72893e-10 0.00191398 1.46608e-13)
(-7.77688e-10 0.00192458 1.4475e-13)
(-7.82307e-10 0.00193422 7.9991e-14)
(-7.80243e-10 0.0019365 8.00286e-14)
(-7.84759e-10 0.00194615 1.4415e-13)
(-7.8976e-10 0.00195675 1.46944e-13)
(-7.95108e-10 0.00196735 1.44436e-13)
(-7.99269e-10 0.00197699 8.02226e-14)
(-7.97585e-10 0.00197927 7.9819e-14)
(-8.01787e-10 0.00198892 1.44304e-13)
(-8.07048e-10 0.00199952 1.46786e-13)
(-8.12181e-10 0.00201012 1.44533e-13)
(-8.16518e-10 0.00201976 8.01131e-14)
(-8.1469e-10 0.00202204 7.9894e-14)
(-8.1901e-10 0.00203169 1.44222e-13)
(-8.24174e-10 0.00204229 1.46827e-13)
(-8.29385e-10 0.00205289 1.44465e-13)
(-8.3366e-10 0.00206253 8.0143e-14)
(-8.31881e-10 0.00206481 7.98519e-14)
(-8.36164e-10 0.00207446 1.44241e-13)
(-8.41355e-10 0.00208506 1.46782e-13)
(-8.46548e-10 0.00209566 1.44475e-13)
(-8.50831e-10 0.0021053 8.01057e-14)
(-8.49053e-10 0.00210758 7.98723e-14)
(-8.53327e-10 0.00211723 1.44201e-13)
(-8.58536e-10 0.00212783 1.46796e-13)
(-8.63701e-10 0.00213843 1.44425e-13)
(-8.68023e-10 0.00214807 8.01312e-14)
(-8.66195e-10 0.00215035 7.9825e-14)
(-8.70533e-10 0.00216 1.44238e-13)
(-8.75661e-10 0.0021706 1.46724e-13)
(-8.80926e-10 0.0021812 1.44477e-13)
(-8.85125e-10 0.00219084 8.00396e-14)
(-8.83446e-10 0.00219312 7.99169e-14)
(-8.87604e-10 0.00220277 1.4411e-13)
(-8.92951e-10 0.00221337 1.4685e-13)
(-8.97951e-10 0.00222397 1.44293e-13)
(-9.02469e-10 0.00223361 8.02313e-14)
(-9.00406e-10 0.00223589 7.96695e-14)
(-9.05028e-10 0.00224554 1.4439e-13)
(-9.09815e-10 0.00225614 1.46486e-13)
(-9.15489e-10 0.00226674 1.44699e-13)
(-9.19196e-10 0.00227638 7.97163e-14)
(-9.18109e-10 0.00227866 8.02759e-14)
(-9.21557e-10 0.00228831 1.43679e-13)
(-9.2776e-10 0.00229892 1.48011e-13)
(-9.31809e-10 0.0023096 1.4815e-13)
(-9.38013e-10 0.0023202 1.44012e-13)
(-9.41464e-10 0.00232985 8.05854e-14)
(-9.4037e-10 0.00233212 7.95386e-14)
(-9.44081e-10 0.00234177 1.44595e-13)
(-9.49751e-10 0.00235237 1.46589e-13)
(-9.54544e-10 0.00236297 1.44707e-13)
(-9.59165e-10 0.00237262 7.99554e-14)
(-9.571e-10 0.00237489 8.00446e-14)
(-9.61617e-10 0.00238454 1.44157e-13)
(-9.66617e-10 0.00239514 1.46927e-13)
(-9.71966e-10 0.00240574 1.44398e-13)
(-9.76124e-10 0.00241539 8.01885e-14)
(-9.74444e-10 0.00241767 7.98379e-14)
(-9.78642e-10 0.00242731 1.44312e-13)
(-9.83908e-10 0.00243791 1.46776e-13)
(-9.89034e-10 0.00244851 1.44496e-13)
(-9.93379e-10 0.00245816 8.0087e-14)
(-9.91542e-10 0.00246044 7.99071e-14)
(-9.95873e-10 0.00247008 1.4424e-13)
(-1.00102e-09 0.00248068 1.4681e-13)
(-1.00625e-09 0.00249128 1.44445e-13)
(-1.01051e-09 0.00250093 8.01039e-14)
(-1.00875e-09 0.00250321 7.98849e-14)
(-1.01301e-09 0.00251285 1.44238e-13)
(-1.01823e-09 0.00252345 1.46797e-13)
(-1.02338e-09 0.00253405 1.44423e-13)
(-1.02771e-09 0.0025437 8.01113e-14)
(-1.02588e-09 0.00254598 7.98546e-14)
(-1.03022e-09 0.00255562 1.44262e-13)
(-1.03535e-09 0.00256622 1.46738e-13)
(-1.04062e-09 0.00257682 1.44468e-13)
(-1.04481e-09 0.00258647 8.00291e-14)
(-1.04313e-09 0.00258875 7.99406e-14)
(-1.04729e-09 0.00259839 1.44141e-13)
(-1.05264e-09 0.00260899 1.46862e-13)
(-1.05764e-09 0.00261959 1.4429e-13)
(-1.06216e-09 0.00262924 8.02198e-14)
(-1.06009e-09 0.00263152 7.96958e-14)
(-1.06472e-09 0.00264116 1.4442e-13)
(-1.0695e-09 0.00265176 1.46501e-13)
(-1.07518e-09 0.00266236 1.44697e-13)
(-1.07888e-09 0.00267201 7.9707e-14)
(-1.0778e-09 0.00267429 8.03021e-14)
(-1.08124e-09 0.00268394 1.43711e-13)
(-1.08745e-09 0.00269454 1.48028e-13)
(-1.0915e-09 0.00270522 1.48147e-13)
(-1.0977e-09 0.00271583 1.43994e-13)
(-1.10115e-09 0.00272547 8.05669e-14)
(-1.10006e-09 0.00272775 7.95544e-14)
(-1.10377e-09 0.0027374 1.44609e-13)
(-1.10944e-09 0.002748 1.46587e-13)
(-1.11423e-09 0.0027586 1.44692e-13)
(-1.11885e-09 0.00276824 7.99383e-14)
(-1.11679e-09 0.00277052 8.00617e-14)
(-1.1213e-09 0.00278017 1.44172e-13)
(-1.12631e-09 0.00279077 1.4693e-13)
(-1.13165e-09 0.00280137 1.44384e-13)
(-1.13581e-09 0.00281101 8.01753e-14)
(-1.13413e-09 0.00281329 7.98527e-14)
(-1.13833e-09 0.00282294 1.44331e-13)
(-1.14359e-09 0.00283354 1.46776e-13)
(-1.14872e-09 0.00284414 1.44489e-13)
(-1.15306e-09 0.00285378 8.0069e-14)
(-1.15123e-09 0.00285606 7.99302e-14)
(-1.15555e-09 0.00286571 1.44252e-13)
(-1.16072e-09 0.00287631 1.46823e-13)
(-1.16593e-09 0.00288691 1.44426e-13)
(-1.1702e-09 0.00289655 8.01041e-14)
(-1.16843e-09 0.00289883 7.98881e-14)
(-1.17271e-09 0.00290848 1.44275e-13)
(-1.1779e-09 0.00291908 1.46782e-13)
(-1.18309e-09 0.00292968 1.44442e-13)
(-1.18738e-09 0.00293932 8.00694e-14)
(-1.1856e-09 0.0029416 7.99106e-14)
(-1.18987e-09 0.00295125 1.44237e-13)
(-1.19508e-09 0.00296185 1.46801e-13)
(-1.20025e-09 0.00297245 1.44397e-13)
(-1.20457e-09 0.00298209 8.00996e-14)
(-1.20274e-09 0.00298437 7.98633e-14)
(-1.20708e-09 0.00299402 1.44278e-13)
(-1.21221e-09 0.00300462 1.46732e-13)
(-1.21747e-09 0.00301522 1.44455e-13)
(-1.22167e-09 0.00302486 8.00102e-14)
(-1.21999e-09 0.00302714 7.99572e-14)
(-1.22415e-09 0.00303679 1.44151e-13)
(-1.22949e-09 0.00304739 1.46862e-13)
(-1.2345e-09 0.00305799 1.44274e-13)
(-1.23901e-09 0.00306764 8.02063e-14)
(-1.23695e-09 0.00306991 7.97092e-14)
(-1.24157e-09 0.00307956 1.44435e-13)
(-1.24636e-09 0.00309016 1.46501e-13)
(-1.25203e-09 0.00310076 1.44686e-13)
(-1.25574e-09 0.00311041 7.96922e-14)
(-1.25465e-09 0.00311268 8.03186e-14)
(-1.2581e-09 0.00312233 1.43724e-13)
(-1.2643e-09 0.00313294 1.48031e-13)
(-1.26835e-09 0.00314362 1.48132e-13)
(-1.27456e-09 0.00315422 1.4397e-13)
(-1.27801e-09 0.00316387 8.05448e-14)
(-1.27692e-09 0.00316615 7.95627e-14)
(-1.28063e-09 0.00317579 1.44609e-13)
(-1.2863e-09 0.00318639 1.46577e-13)
(-1.29109e-09 0.00319699 1.44667e-13)
(-1.29571e-09 0.00320664 7.99203e-14)
(-1.29364e-09 0.00320892 8.00679e-14)
(-1.29816e-09 0.00321857 1.44176e-13)
(-1.30316e-09 0.00322917 1.46918e-13)
(-1.30851e-09 0.00323976 1.44365e-13)
(-1.31267e-09 0.00324941 8.0155e-14)
(-1.31099e-09 0.00325169 7.98637e-14)
(-1.31519e-09 0.00326134 1.44332e-13)
(-1.32045e-09 0.00327194 1.46772e-13)
(-1.32558e-09 0.00328254 1.44465e-13)
(-1.32992e-09 0.00329218 8.00575e-14)
(-1.32809e-09 0.00329446 7.99327e-14)
(-1.33242e-09 0.00330411 1.44264e-13)
(-1.33757e-09 0.00331471 1.46808e-13)
(-1.34279e-09 0.00332531 1.44419e-13)
(-1.34705e-09 0.00333495 8.00759e-14)
(-1.34529e-09 0.00333723 7.99127e-14)
(-1.34955e-09 0.00334688 1.44263e-13)
(-1.35477e-09 0.00335748 1.46799e-13)
(-1.35993e-09 0.00336808 1.444e-13)
(-1.36426e-09 0.00337772 8.0087e-14)
(-1.36242e-09 0.00338 7.98821e-14)
(-1.36677e-09 0.00338965 1.44291e-13)
(-1.37189e-09 0.00340025 1.46742e-13)
(-1.37716e-09 0.00341085 1.4445e-13)
(-1.38136e-09 0.00342049 8.0006e-14)
(-1.37968e-09 0.00342277 7.99702e-14)
(-1.38383e-09 0.00343242 1.4417e-13)
(-1.38918e-09 0.00344302 1.4687e-13)
(-1.39418e-09 0.00345362 1.44274e-13)
(-1.3987e-09 0.00346326 8.02003e-14)
(-1.39664e-09 0.00346554 7.97247e-14)
(-1.40126e-09 0.00347519 1.44453e-13)
(-1.40605e-09 0.00348579 1.4651e-13)
(-1.41172e-09 0.00349639 1.44686e-13)
(-1.41543e-09 0.00350603 7.96877e-14)
(-1.41434e-09 0.00350831 8.03339e-14)
(-1.41779e-09 0.00351796 1.43743e-13)
(-1.42399e-09 0.00352856 1.48041e-13)
(-1.42804e-09 0.00353924 1.48132e-13)
(-1.43424e-09 0.00354985 1.43961e-13)
(-1.4377e-09 0.00355949 8.05352e-14)
(-1.4366e-09 0.00356177 7.95722e-14)
(-1.44031e-09 0.00357142 1.44618e-13)
(-1.44598e-09 0.00358202 1.46577e-13)
(-1.45078e-09 0.00359262 1.4466e-13)
(-1.4554e-09 0.00360227 7.9911e-14)
(-1.45333e-09 0.00360454 8.00786e-14)
(-1.45785e-09 0.00361419 1.44185e-13)
(-1.46285e-09 0.00362479 1.46921e-13)
(-1.4682e-09 0.00363539 1.44357e-13)
(-1.47236e-09 0.00364504 8.01487e-14)
(-1.47067e-09 0.00364731 7.98719e-14)
(-1.47488e-09 0.00365696 1.44345e-13)
(-1.48014e-09 0.00366756 1.46772e-13)
(-1.48527e-09 0.00367816 1.44463e-13)
(-1.48961e-09 0.00368781 8.00458e-14)
(-1.48778e-09 0.00369008 7.9949e-14)
(-1.4921e-09 0.00369973 1.44269e-13)
(-1.49726e-09 0.00371033 1.4682e-13)
(-1.50247e-09 0.00372093 1.44406e-13)
(-1.50675e-09 0.00373058 8.00816e-14)
(-1.50497e-09 0.00373286 7.99091e-14)
(-1.50925e-09 0.0037425 1.44293e-13)
(-1.51444e-09 0.0037531 1.46782e-13)
(-1.51964e-09 0.0037637 1.44423e-13)
(-1.52392e-09 0.00377335 8.00502e-14)
(-1.52214e-09 0.00377563 7.99311e-14)
(-1.52642e-09 0.00378527 1.44259e-13)
(-1.53162e-09 0.00379587 1.46803e-13)
(-1.53679e-09 0.00380647 1.44382e-13)
(-1.54111e-09 0.00381612 8.00808e-14)
(-1.53928e-09 0.0038184 7.98858e-14)
(-1.54362e-09 0.00382804 1.443e-13)
(-1.54875e-09 0.00383864 1.46737e-13)
(-1.55401e-09 0.00384924 1.44441e-13)
(-1.55821e-09 0.00385889 7.99944e-14)
(-1.55653e-09 0.00386117 7.99791e-14)
(-1.56069e-09 0.00387081 1.44176e-13)
(-1.56604e-09 0.00388141 1.46869e-13)
(-1.57104e-09 0.00389201 1.44265e-13)
(-1.57556e-09 0.00390166 8.0191e-14)
(-1.57349e-09 0.00390394 7.9733e-14)
(-1.57812e-09 0.00391358 1.4446e-13)
(-1.5829e-09 0.00392418 1.4651e-13)
(-1.58858e-09 0.00393478 1.44678e-13)
(-1.59228e-09 0.00394443 7.96793e-14)
(-1.5912e-09 0.00394671 8.03423e-14)
(-1.59464e-09 0.00395635 1.43751e-13)
(-1.60085e-09 0.00396696 1.48042e-13)
(-1.6049e-09 0.00397764 1.48123e-13)
(-1.6111e-09 0.00398825 1.43944e-13)
(-1.61455e-09 0.00399789 8.05223e-14)
(-1.61346e-09 0.00400017 7.95757e-14)
(-1.61717e-09 0.00400982 1.44618e-13)
(-1.62284e-09 0.00402042 1.46569e-13)
(-1.62763e-09 0.00403102 1.44645e-13)
(-1.63225e-09 0.00404066 7.98986e-14)
(-1.63019e-09 0.00404294 8.00827e-14)
(-1.63471e-09 0.00405259 1.44186e-13)
(-1.63971e-09 0.00406319 1.46914e-13)
(-1.64505e-09 0.00407379 1.44343e-13)
(-1.64921e-09 0.00408343 8.01362e-14)
(-1.64753e-09 0.00408571 7.98778e-14)
(-1.65173e-09 0.00409536 1.44345e-13)
(-1.657e-09 0.00410596 1.46768e-13)
(-1.66212e-09 0.00411656 1.44448e-13)
(-1.66647e-09 0.0041262 8.00389e-14)
(-1.66463e-09 0.00412848 7.99491e-14)
(-1.66896e-09 0.00413813 1.44277e-13)
(-1.67411e-09 0.00414873 1.46808e-13)
(-1.67934e-09 0.00415933 1.44403e-13)
(-1.68359e-09 0.00416897 8.00602e-14)
(-1.68184e-09 0.00417125 7.99282e-14)
(-1.68609e-09 0.0041809 1.44279e-13)
(-1.69132e-09 0.0041915 1.46799e-13)
(-1.69647e-09 0.0042021 1.44387e-13)
(-1.7008e-09 0.00421174 8.00712e-14)
(-1.69897e-09 0.00421402 7.98998e-14)
(-1.70331e-09 0.00422367 1.44307e-13)
(-1.70843e-09 0.00423427 1.46746e-13)
(-1.7137e-09 0.00424487 1.44438e-13)
(-1.7179e-09 0.00425451 7.99931e-14)
(-1.71622e-09 0.00425679 7.99871e-14)
(-1.72038e-09 0.00426644 1.44189e-13)
(-1.72573e-09 0.00427704 1.46874e-13)
(-1.73073e-09 0.00428764 1.44266e-13)
(-1.73525e-09 0.00429728 8.01873e-14)
(-1.73318e-09 0.00429956 7.97435e-14)
(-1.7378e-09 0.00430921 1.44472e-13)
(-1.74259e-09 0.00431981 1.46517e-13)
(-1.74826e-09 0.00433041 1.44678e-13)
(-1.75197e-09 0.00434005 7.9677e-14)
(-1.75088e-09 0.00434233 8.03523e-14)
(-1.75433e-09 0.00435198 1.43764e-13)
(-1.76054e-09 0.00436259 1.48049e-13)
(-1.76458e-09 0.00437327 1.48123e-13)
(-1.77079e-09 0.00438387 1.43939e-13)
(-1.77424e-09 0.00439352 8.05167e-14)
(-1.77315e-09 0.0043958 7.95821e-14)
(-1.77686e-09 0.00440544 1.44625e-13)
(-1.78253e-09 0.00441604 1.4657e-13)
(-1.78732e-09 0.00442664 1.44641e-13)
(-1.79194e-09 0.00443629 7.98928e-14)
(-1.78988e-09 0.00443857 8.00903e-14)
(-1.79439e-09 0.00444821 1.44192e-13)
(-1.79939e-09 0.00445881 1.46917e-13)
(-1.80474e-09 0.00446941 1.44339e-13)
(-1.8089e-09 0.00447906 8.01332e-14)
(-1.80722e-09 0.00448134 7.98828e-14)
(-1.81142e-09 0.00449098 1.44355e-13)
(-1.81668e-09 0.00450158 1.46768e-13)
(-1.82181e-09 0.00451218 1.44449e-13)
(-1.82615e-09 0.00452183 8.003e-14)
(-1.82432e-09 0.00452411 7.99621e-14)
(-1.82864e-09 0.00453375 1.44279e-13)
(-1.83381e-09 0.00454435 1.46819e-13)
(-1.83902e-09 0.00455495 1.44391e-13)
(-1.84329e-09 0.0045646 8.00685e-14)
(-1.84151e-09 0.00456688 7.99212e-14)
(-1.8458e-09 0.00457653 1.44306e-13)
(-1.85099e-09 0.00458712 1.46782e-13)
(-1.85618e-09 0.00459772 1.44412e-13)
(-1.86046e-09 0.00460737 8.00367e-14)
(-1.85869e-09 0.00460965 7.99454e-14)
(-1.86296e-09 0.0046193 1.44271e-13)
(-1.86817e-09 0.0046299 1.46805e-13)
(-1.87333e-09 0.00464049 1.44371e-13)
(-1.87765e-09 0.00465014 8.00699e-14)
(-1.87583e-09 0.00465242 7.9899e-14)
(-1.88016e-09 0.00466207 1.44315e-13)
(-1.88529e-09 0.00467267 1.46739e-13)
(-1.89056e-09 0.00468327 1.44434e-13)
(-1.89476e-09 0.00469291 7.9983e-14)
(-1.89308e-09 0.00469519 7.99945e-14)
(-1.89724e-09 0.00470484 1.44191e-13)
(-1.90258e-09 0.00471544 1.46874e-13)
(-1.90758e-09 0.00472604 1.44257e-13)
(-1.9121e-09 0.00473568 8.01823e-14)
(-1.91004e-09 0.00473796 7.97471e-14)
(-1.91466e-09 0.00474761 1.44478e-13)
(-1.91945e-09 0.00475821 1.46515e-13)
(-1.92512e-09 0.00476881 1.44674e-13)
(-1.92883e-09 0.00477845 7.96696e-14)
(-1.92774e-09 0.00478073 8.0359e-14)
(-1.93119e-09 0.00479038 1.43768e-13)
(-1.93739e-09 0.00480098 1.4805e-13)
(-1.94144e-09 0.00481166 1.48115e-13)
(-1.94764e-09 0.00482227 1.43929e-13)
(-1.9511e-09 0.00483191 8.05062e-14)
(-1.95e-09 0.00483419 7.95856e-14)
(-1.95371e-09 0.00484384 1.44622e-13)
(-1.95938e-09 0.00485444 1.46565e-13)
(-1.96418e-09 0.00486504 1.44629e-13)
(-1.9688e-09 0.00487468 7.98857e-14)
(-1.96673e-09 0.00487696 8.00911e-14)
(-1.97125e-09 0.00488661 1.44193e-13)
(-1.97625e-09 0.00489721 1.46909e-13)
(-1.9816e-09 0.00490781 1.44331e-13)
(-1.98576e-09 0.00491746 8.01225e-14)
(-1.98408e-09 0.00491973 7.98885e-14)
(-1.98827e-09 0.00492938 1.44352e-13)
(-1.99354e-09 0.00493998 1.46767e-13)
(-1.99867e-09 0.00495058 1.44435e-13)
(-2.00301e-09 0.00496023 8.00278e-14)
(-2.00117e-09 0.0049625 7.99586e-14)
(-2.0055e-09 0.00497215 1.44287e-13)
(-2.01066e-09 0.00498275 1.46806e-13)
(-2.01588e-09 0.00499335 1.44394e-13)
(-2.02014e-09 0.005003 8.00484e-14)
(-2.01838e-09 0.00500527 7.994e-14)
(-2.02264e-09 0.00501492 1.44289e-13)
(-2.02786e-09 0.00502552 1.46801e-13)
(-2.03302e-09 0.00503612 1.44378e-13)
(-2.03735e-09 0.00504577 8.0062e-14)
(-2.03551e-09 0.00504804 7.99103e-14)
(-2.03985e-09 0.00505769 1.44319e-13)
(-2.04498e-09 0.00506829 1.46747e-13)
(-2.05025e-09 0.00507889 1.44431e-13)
(-2.05444e-09 0.00508854 7.9983e-14)
(-2.05277e-09 0.00509082 7.99998e-14)
(-2.05692e-09 0.00510046 1.44201e-13)
(-2.06227e-09 0.00511106 1.46878e-13)
(-2.06727e-09 0.00512166 1.44259e-13)
(-2.07179e-09 0.00513131 8.01798e-14)
(-2.06972e-09 0.00513359 7.97549e-14)
(-2.07435e-09 0.00514323 1.44487e-13)
(-2.07913e-09 0.00515383 1.46521e-13)
(-2.08481e-09 0.00516443 1.44675e-13)
(-2.08852e-09 0.00517408 7.96684e-14)
(-2.08743e-09 0.00517636 8.03662e-14)
(-2.09088e-09 0.005186 1.43777e-13)
(-2.09708e-09 0.00519661 1.48055e-13)
(-2.10113e-09 0.00520729 1.48116e-13)
(-2.10733e-09 0.00521789 1.43926e-13)
(-2.11078e-09 0.00522754 8.05027e-14)
(-2.10969e-09 0.00522982 7.95902e-14)
(-2.1134e-09 0.00523947 1.44628e-13)
(-2.11907e-09 0.00525007 1.46566e-13)
(-2.12386e-09 0.00526067 1.44627e-13)
(-2.12848e-09 0.00527031 7.98818e-14)
(-2.12642e-09 0.00527259 8.00969e-14)
(-2.13094e-09 0.00528224 1.44198e-13)
(-2.13594e-09 0.00529284 1.46912e-13)
(-2.14128e-09 0.00530344 1.44328e-13)
(-2.14544e-09 0.00531308 8.01212e-14)
(-2.14376e-09 0.00531536 7.98917e-14)
(-2.14796e-09 0.00532501 1.4436e-13)
(-2.15322e-09 0.00533561 1.46766e-13)
(-2.15836e-09 0.00534621 1.44437e-13)
(-2.16269e-09 0.00535585 8.00206e-14)
(-2.16087e-09 0.00535813 7.99696e-14)
(-2.16519e-09 0.00536778 1.44287e-13)
(-2.17035e-09 0.00537838 1.46817e-13)
(-2.17556e-09 0.00538898 1.44383e-13)
(-2.17984e-09 0.00539862 8.00581e-14)
(-2.17806e-09 0.0054009 7.9931e-14)
(-2.18234e-09 0.00541055 1.44313e-13)
(-2.18753e-09 0.00542115 1.46783e-13)
(-2.19272e-09 0.00543175 1.44403e-13)
(-2.19701e-09 0.00544139 8.00288e-14)
(-2.19523e-09 0.00544367 7.99538e-14)
(-2.1995e-09 0.00545332 1.44281e-13)
(-2.20471e-09 0.00546392 1.46805e-13)
(-2.20988e-09 0.00547452 1.44365e-13)
(-2.2142e-09 0.00548416 8.00609e-14)
(-2.21237e-09 0.00548644 7.99097e-14)
(-2.21671e-09 0.00549609 1.44324e-13)
(-2.22184e-09 0.00550669 1.46742e-13)
(-2.2271e-09 0.00551729 1.44427e-13)
(-2.2313e-09 0.00552693 7.99766e-14)
(-2.22962e-09 0.00552921 8.00037e-14)
(-2.23378e-09 0.00553886 1.44202e-13)
(-2.23913e-09 0.00554946 1.46876e-13)
(-2.24413e-09 0.00556006 1.44253e-13)
(-2.24865e-09 0.0055697 8.01747e-14)
(-2.24658e-09 0.00557198 7.97586e-14)
(-2.2512e-09 0.00558163 1.44489e-13)
(-2.25599e-09 0.00559223 1.4652e-13)
(-2.26166e-09 0.00560283 1.44669e-13)
(-2.26537e-09 0.00561247 7.96643e-14)
(-2.26428e-09 0.00561475 8.03692e-14)
(-2.26773e-09 0.0056244 1.43781e-13)
(-2.27394e-09 0.00563501 1.48054e-13)
(-2.27798e-09 0.00564569 1.48112e-13)
(-2.28419e-09 0.00565629 1.43916e-13)
(-2.28764e-09 0.00566594 8.04965e-14)
(-2.28655e-09 0.00566822 7.95909e-14)
(-2.29026e-09 0.00567786 1.44627e-13)
(-2.29593e-09 0.00568846 1.46561e-13)
(-2.30072e-09 0.00569906 1.44619e-13)
(-2.30534e-09 0.00570871 7.9875e-14)
(-2.30328e-09 0.00571099 8.00986e-14)
(-2.30779e-09 0.00572063 1.44197e-13)
(-2.31279e-09 0.00573123 1.46908e-13)
(-2.31814e-09 0.00574183 1.4432e-13)
(-2.3223e-09 0.00575148 8.01144e-14)
(-2.32062e-09 0.00575376 7.98946e-14)
(-2.32482e-09 0.0057634 1.44359e-13)
(-2.33008e-09 0.005774 1.46765e-13)
(-2.33521e-09 0.0057846 1.44427e-13)
(-2.33955e-09 0.00579425 8.00184e-14)
(-2.33772e-09 0.00579653 7.9967e-14)
(-2.34205e-09 0.00580617 1.44293e-13)
(-2.3472e-09 0.00581677 1.46807e-13)
(-2.35243e-09 0.00582737 1.44385e-13)
(-2.35668e-09 0.00583702 8.00416e-14)
(-2.35493e-09 0.0058393 7.99468e-14)
(-2.35918e-09 0.00584894 1.44297e-13)
(-2.36441e-09 0.00585954 1.468e-13)
(-2.36956e-09 0.00587014 1.44372e-13)
(-2.37389e-09 0.00587979 8.00538e-14)
(-2.37205e-09 0.00588207 7.99195e-14)
(-2.3764e-09 0.00589171 1.44326e-13)
(-2.38152e-09 0.00590231 1.46749e-13)
(-2.38679e-09 0.00591291 1.44425e-13)
(-2.39099e-09 0.00592256 7.99774e-14)
(-2.38931e-09 0.00592484 8.00073e-14)
(-2.39347e-09 0.00593448 1.44211e-13)
(-2.39881e-09 0.00594508 1.46879e-13)
(-2.40381e-09 0.00595568 1.44255e-13)
(-2.40833e-09 0.00596533 8.01729e-14)
(-2.40627e-09 0.00596761 7.97647e-14)
(-2.41089e-09 0.00597726 1.44495e-13)
(-2.41568e-09 0.00598786 1.46524e-13)
(-2.42135e-09 0.00599845 1.4467e-13)
(-2.42506e-09 0.0060081 7.96638e-14)
(-2.42397e-09 0.00601038 8.03746e-14)
(-2.42742e-09 0.00602003 1.43788e-13)
(-2.43362e-09 0.00603063 1.48058e-13)
(-2.43767e-09 0.00604131 1.48113e-13)
(-2.44388e-09 0.00605192 1.43914e-13)
(-2.44733e-09 0.00606156 8.04942e-14)
(-2.44623e-09 0.00606384 7.95944e-14)
(-2.44994e-09 0.00607349 1.44632e-13)
(-2.45561e-09 0.00608409 1.46562e-13)
(-2.46041e-09 0.00609469 1.44618e-13)
(-2.46503e-09 0.00610433 7.98721e-14)
(-2.46296e-09 0.00610661 8.01033e-14)
(-2.46748e-09 0.00611626 1.44201e-13)
(-2.47248e-09 0.00612686 1.46911e-13)
(-2.47783e-09 0.00613746 1.44318e-13)
(-2.48199e-09 0.0061471 8.01141e-14)
(-2.48031e-09 0.00614938 7.98965e-14)
(-2.48451e-09 0.00615903 1.44366e-13)
(-2.48977e-09 0.00616963 1.46764e-13)
(-2.4949e-09 0.00618023 1.44431e-13)
(-2.49924e-09 0.00618987 8.0012e-14)
(-2.49741e-09 0.00619215 7.99769e-14)
(-2.50173e-09 0.0062018 1.44291e-13)
(-2.50689e-09 0.0062124 1.46817e-13)
(-2.5121e-09 0.006223 1.44375e-13)
(-2.51638e-09 0.00623264 8.00521e-14)
(-2.5146e-09 0.00623492 7.99365e-14)
(-2.51888e-09 0.00624457 1.4432e-13)
(-2.52408e-09 0.00625517 1.46782e-13)
(-2.52927e-09 0.00626577 1.44398e-13)
(-2.53355e-09 0.00627542 8.00212e-14)
(-2.53177e-09 0.00627769 7.99617e-14)
(-2.53605e-09 0.00628734 1.44287e-13)
(-2.54126e-09 0.00629794 1.46807e-13)
(-2.54642e-09 0.00630854 1.44359e-13)
(-2.55074e-09 0.00631819 8.0056e-14)
(-2.54891e-09 0.00632046 7.99159e-14)
(-2.55325e-09 0.00633011 1.44332e-13)
(-2.55838e-09 0.00634071 1.46743e-13)
(-2.56365e-09 0.00635131 1.44424e-13)
(-2.56785e-09 0.00636096 7.99701e-14)
(-2.56616e-09 0.00636323 8.00123e-14)
(-2.57032e-09 0.00637288 1.44209e-13)
(-2.57567e-09 0.00638348 1.4688e-13)
(-2.58067e-09 0.00639408 1.44249e-13)
(-2.58519e-09 0.00640373 8.01708e-14)
(-2.58312e-09 0.00640601 7.97653e-14)
(-2.58775e-09 0.00641565 1.44498e-13)
(-2.59254e-09 0.00642625 1.46522e-13)
(-2.59821e-09 0.00643685 1.44668e-13)
(-2.60192e-09 0.0064465 7.96586e-14)
(-2.60083e-09 0.00644878 8.03786e-14)
(-2.60428e-09 0.00645842 1.43789e-13)
(-2.61048e-09 0.00646903 1.48059e-13)
(-2.61453e-09 0.00647971 1.48107e-13)
(-2.62073e-09 0.00649031 1.43909e-13)
(-2.62418e-09 0.00649996 8.04874e-14)
(-2.62309e-09 0.00650224 7.95967e-14)
(-2.6268e-09 0.00651189 1.44629e-13)
(-2.63247e-09 0.00652249 1.4656e-13)
(-2.63726e-09 0.00653308 1.4461e-13)
(-2.64188e-09 0.00654273 7.98688e-14)
(-2.63982e-09 0.00654501 8.01024e-14)
(-2.64434e-09 0.00655466 1.44202e-13)
(-2.64934e-09 0.00656526 1.46905e-13)
(-2.65469e-09 0.00657586 1.44314e-13)
(-2.65884e-09 0.0065855 8.01065e-14)
(-2.65716e-09 0.00658778 7.99009e-14)
(-2.66136e-09 0.00659743 1.44362e-13)
(-2.66663e-09 0.00660803 1.46765e-13)