/*--------------------------------*- C++ -*----------------------------------*\
| =========                 |                                                 |
| \\      /  F ield         | OpenFOAM: The Open Source CFD Toolbox           |
|  \\    /   O peration     | Version:  2206                                  |
|   \\  /    A nd           | Website:  www.openfoam.com                      |
|    \\/     M anipulation  |                                                 |
\*---------------------------------------------------------------------------*/
FoamFile
{
    version     2.0;
    format      ascii;
    arch        "LSB;label=32;scalar=64";
    class       volVectorField;
    location    "550";
    object      U;
}
// * * * * * * * * * * * * * * * * * * * * * * * * * * * * * * * * * * * * * //

dimensions      [0 1 -1 0 0 0 0];

internalField   nonuniform List<vector> 
100000
(
(-4.92612e-12 6.47754e-06 5.69548e-13)
(-4.71062e-12 1.20934e-05 8.395e-14)
(-8.1577e-12 2.20442e-05 1.45856e-13)
(-1.44407e-11 3.27294e-05 1.53514e-13)
(-1.78915e-11 4.24166e-05 8.89181e-14)
(-1.69493e-11 4.49092e-05 7.50263e-14)
(-2.06571e-11 5.48188e-05 1.42081e-13)
(-2.63464e-11 6.5646e-05 1.47927e-13)
(-3.13219e-11 7.64548e-05 1.49698e-13)
(-3.58998e-11 8.62283e-05 8.42664e-14)
(-3.39946e-11 8.86552e-05 7.84277e-14)
(-3.84174e-11 9.85384e-05 1.43157e-13)
(-4.36499e-11 0.000109369 1.48725e-13)
(-4.88786e-11 0.000120188 1.47907e-13)
(-5.33603e-11 0.000129985 8.3559e-14)
(-5.1392e-11 0.0001324 7.88843e-14)
(-5.60259e-11 0.00014227 1.44433e-13)
(-6.08996e-11 0.000153101 1.48238e-13)
(-6.66548e-11 0.000163923 1.47871e-13)
(-7.0422e-11 0.000173732 8.24026e-14)
(-6.93677e-11 0.000176142 8.00223e-14)
(-7.28597e-11 0.000186006 1.44149e-13)
(-7.91457e-11 0.000196845 1.49843e-13)
(-8.32708e-11 0.000207762 1.51453e-13)
(-8.95834e-11 0.000218593 1.48123e-13)
(-9.31023e-11 0.00022841 8.36623e-14)
(-9.19812e-11 0.000230818 8.03005e-14)
(-9.57635e-11 0.000240676 1.46558e-13)
(-1.0151e-10 0.000251507 1.49565e-13)
(-1.06408e-10 0.000262331 1.48429e-13)
(-1.1109e-10 0.000272151 8.26635e-14)
(-1.09012e-10 0.000274558 8.09092e-14)
(-1.13592e-10 0.000284413 1.46074e-13)
(-1.18676e-10 0.000295244 1.4974e-13)
(-1.24118e-10 0.000306069 1.47802e-13)
(-1.28346e-10 0.000315891 8.26712e-14)
(-1.26649e-10 0.000318298 8.07509e-14)
(-1.30918e-10 0.000328151 1.46218e-13)
(-1.36258e-10 0.000338981 1.49454e-13)
(-1.41485e-10 0.000349807 1.4768e-13)
(-1.45887e-10 0.000359631 8.23885e-14)
(-1.44051e-10 0.000362038 8.08718e-14)
(-1.48436e-10 0.000371889 1.46127e-13)
(-1.53681e-10 0.000382719 1.49402e-13)
(-1.58983e-10 0.000393545 1.47444e-13)
(-1.63324e-10 0.000403371 8.22883e-14)
(-1.61538e-10 0.000405777 8.08643e-14)
(-1.65888e-10 0.000415627 1.46144e-13)
(-1.71156e-10 0.000426457 1.49284e-13)
(-1.76442e-10 0.000437283 1.47323e-13)
(-1.80787e-10 0.000447111 8.2146e-14)
(-1.79008e-10 0.000449516 8.09163e-14)
(-1.83344e-10 0.000459365 1.46101e-13)
(-1.88636e-10 0.000470195 1.49244e-13)
(-1.93886e-10 0.000481021 1.47167e-13)
(-1.98277e-10 0.00049085 8.2091e-14)
(-1.96441e-10 0.000493256 8.08916e-14)
(-2.00851e-10 0.000503103 1.46141e-13)
(-2.0605e-10 0.000513933 1.49125e-13)
(-2.11412e-10 0.00052476 1.47137e-13)
(-2.15666e-10 0.000534589 8.19281e-14)
(-2.13997e-10 0.000536995 8.10089e-14)
(-2.18208e-10 0.000546842 1.46011e-13)
(-2.23647e-10 0.000557671 1.49219e-13)
(-2.2872e-10 0.000568498 1.4688e-13)
(-2.33318e-10 0.000578328 8.2067e-14)
(-2.31237e-10 0.000580734 8.07774e-14)
(-2.35943e-10 0.00059058 1.46296e-13)
(-2.40788e-10 0.00060141 1.48824e-13)
(-2.46572e-10 0.000612236 1.47229e-13)
(-2.50318e-10 0.000622067 8.15054e-14)
(-2.49259e-10 0.000624473 8.13992e-14)
(-2.52744e-10 0.000634319 1.45601e-13)
(-2.59055e-10 0.000645156 1.50361e-13)
(-2.63165e-10 0.000656075 1.50871e-13)
(-2.69483e-10 0.000666909 1.46822e-13)
(-2.7298e-10 0.000676741 8.25336e-14)
(-2.71893e-10 0.000679146 8.08577e-14)
(-2.75655e-10 0.000688991 1.46853e-13)
(-2.81421e-10 0.000699821 1.49205e-13)
(-2.86292e-10 0.000710648 1.4747e-13)
(-2.90988e-10 0.000720479 8.1834e-14)
(-2.88905e-10 0.000722885 8.13797e-14)
(-2.93497e-10 0.00073273 1.4638e-13)
(-2.98572e-10 0.000743559 1.49515e-13)
(-3.04017e-10 0.000754386 1.47093e-13)
(-3.08234e-10 0.000764218 8.20332e-14)
(-3.06553e-10 0.000766624 8.1166e-14)
(-3.1081e-10 0.000776468 1.46523e-13)
(-3.16165e-10 0.000787297 1.49324e-13)
(-3.21374e-10 0.000798125 1.47144e-13)
(-3.25789e-10 0.000807957 8.18921e-14)
(-3.23941e-10 0.000810362 8.12378e-14)
(-3.28342e-10 0.000820207 1.46434e-13)
(-3.33572e-10 0.000831036 1.49329e-13)
(-3.3889e-10 0.000841863 1.47048e-13)
(-3.43206e-10 0.000851696 8.18774e-14)
(-3.4145e-10 0.000854101 8.12159e-14)
(-3.45766e-10 0.000863945 1.46419e-13)
(-3.51077e-10 0.000874774 1.49289e-13)
(-3.56312e-10 0.000885602 1.46986e-13)
(-3.60714e-10 0.000895435 8.18578e-14)
(-3.58867e-10 0.00089784 8.11847e-14)
(-3.63284e-10 0.000907684 1.46435e-13)
(-3.68482e-10 0.000918513 1.49205e-13)
(-3.73846e-10 0.00092934 1.46999e-13)
(-3.78098e-10 0.000939173 8.17474e-14)
(-3.76428e-10 0.000941579 8.12751e-14)
(-3.80637e-10 0.000951422 1.463e-13)
(-3.8608e-10 0.000962251 1.49312e-13)
(-3.91152e-10 0.000973079 1.46786e-13)
(-3.95751e-10 0.000982912 8.19202e-14)
(-3.93668e-10 0.000985317 8.10267e-14)
(-3.98372e-10 0.000995161 1.46577e-13)
(-4.03223e-10 0.00100599 1.48929e-13)
(-4.09003e-10 0.00101682 1.47171e-13)
(-4.12753e-10 0.00102665 8.13833e-14)
(-4.11687e-10 0.00102906 8.16388e-14)
(-4.15174e-10 0.0010389 1.45864e-13)
(-4.21487e-10 0.00104974 1.50481e-13)
(-4.25597e-10 0.00106065 1.50796e-13)
(-4.31914e-10 0.00107149 1.46616e-13)
(-4.35409e-10 0.00108132 8.23383e-14)
(-4.34326e-10 0.00108373 8.09829e-14)
(-4.38086e-10 0.00109357 1.46939e-13)
(-4.43855e-10 0.0011044 1.4916e-13)
(-4.48722e-10 0.00111523 1.47296e-13)
(-4.53419e-10 0.00112506 8.16717e-14)
(-4.51337e-10 0.00112747 8.14999e-14)
(-4.55929e-10 0.00113731 1.46476e-13)
(-4.61005e-10 0.00114814 1.49491e-13)
(-4.66448e-10 0.00115897 1.46951e-13)
(-4.70666e-10 0.0011688 8.1897e-14)
(-4.68983e-10 0.00117121 8.12807e-14)
(-4.73244e-10 0.00118105 1.46629e-13)
(-4.78594e-10 0.00119188 1.49313e-13)
(-4.83809e-10 0.00120271 1.47035e-13)
(-4.88215e-10 0.00121254 8.17687e-14)
(-4.86378e-10 0.00121495 8.13593e-14)
(-4.90766e-10 0.00122479 1.46534e-13)
(-4.96013e-10 0.00123562 1.49345e-13)
(-5.01311e-10 0.00124644 1.46946e-13)
(-5.0565e-10 0.00125628 8.17906e-14)
(-5.03866e-10 0.00125868 8.1312e-14)
(-5.08215e-10 0.00126853 1.4655e-13)
(-5.13489e-10 0.00127936 1.49285e-13)
(-5.18769e-10 0.00129018 1.46943e-13)
(-5.23116e-10 0.00130002 8.17388e-14)
(-5.21335e-10 0.00130242 8.13349e-14)
(-5.25672e-10 0.00131226 1.46501e-13)
(-5.30967e-10 0.00132309 1.49293e-13)
(-5.36215e-10 0.00133392 1.46876e-13)
(-5.40605e-10 0.00134376 8.17583e-14)
(-5.38768e-10 0.00134616 8.12828e-14)
(-5.43176e-10 0.001356 1.46537e-13)
(-5.48383e-10 0.00136683 1.49207e-13)
(-5.53739e-10 0.00137766 1.4692e-13)
(-5.57996e-10 0.00138749 8.16528e-14)
(-5.56321e-10 0.0013899 8.13792e-14)
(-5.60535e-10 0.00139974 1.46399e-13)
(-5.65976e-10 0.00141057 1.4933e-13)
(-5.7105e-10 0.0014214 1.46718e-13)
(-5.75646e-10 0.00143123 8.18427e-14)
(-5.73565e-10 0.00143364 8.11245e-14)
(-5.78267e-10 0.00144348 1.46682e-13)
(-5.83121e-10 0.00145431 1.48952e-13)
(-5.88898e-10 0.00146514 1.47121e-13)
(-5.9265e-10 0.00147497 8.13123e-14)
(-5.91582e-10 0.00147738 8.17395e-14)
(-5.95071e-10 0.00148722 1.45965e-13)
(-6.01384e-10 0.00149806 1.50516e-13)
(-6.05494e-10 0.00150897 1.50736e-13)
(-6.11809e-10 0.00151981 1.46494e-13)
(-6.15304e-10 0.00152965 8.22293e-14)
(-6.14224e-10 0.00153205 8.1033e-14)
(-6.17982e-10 0.00154189 1.46958e-13)
(-6.23753e-10 0.00155272 1.49116e-13)
(-6.28617e-10 0.00156355 1.47185e-13)
(-6.33316e-10 0.00157338 8.15788e-14)
(-6.31233e-10 0.00157579 8.15471e-14)
(-6.35827e-10 0.00158563 1.46505e-13)
(-6.40901e-10 0.00159646 1.49454e-13)
(-6.46345e-10 0.00160729 1.46858e-13)
(-6.5056e-10 0.00161712 8.18103e-14)
(-6.48882e-10 0.00161953 8.13335e-14)
(-6.53137e-10 0.00162937 1.46658e-13)
(-6.58495e-10 0.0016402 1.49291e-13)
(-6.63701e-10 0.00165103 1.46948e-13)
(-6.68116e-10 0.00166086 8.16992e-14)
(-6.66268e-10 0.00166327 8.14032e-14)
(-6.7067e-10 0.00167311 1.4658e-13)
(-6.75901e-10 0.00168394 1.49319e-13)
(-6.81217e-10 0.00169476 1.46887e-13)
(-6.85534e-10 0.0017046 8.17101e-14)
(-6.83777e-10 0.00170701 8.13796e-14)
(-6.88093e-10 0.00171685 1.46573e-13)
(-6.93407e-10 0.00172768 1.49299e-13)
(-6.9864e-10 0.0017385 1.46855e-13)
(-7.03042e-10 0.00174834 8.17131e-14)
(-7.01195e-10 0.00175074 8.13461e-14)
(-7.05611e-10 0.00176058 1.46595e-13)
(-7.10811e-10 0.00177141 1.49232e-13)
(-7.16173e-10 0.00178224 1.46895e-13)
(-7.20426e-10 0.00179208 8.16219e-14)
(-7.18754e-10 0.00179448 8.1435e-14)
(-7.22965e-10 0.00180432 1.46465e-13)
(-7.28408e-10 0.00181515 1.49354e-13)
(-7.33481e-10 0.00182598 1.46705e-13)
(-7.38078e-10 0.00183582 8.18132e-14)
(-7.35995e-10 0.00183822 8.11829e-14)
(-7.40698e-10 0.00184806 1.46748e-13)
(-7.45552e-10 0.00185889 1.48981e-13)
(-7.5133e-10 0.00186972 1.47113e-13)
(-7.55082e-10 0.00187955 8.12875e-14)
(-7.54012e-10 0.00188196 8.17978e-14)
(-7.57502e-10 0.0018918 1.46032e-13)
(-7.63815e-10 0.00190264 1.50549e-13)
(-7.67926e-10 0.00191356 1.50723e-13)
(-7.74241e-10 0.00192439 1.46448e-13)
(-7.77735e-10 0.00193423 8.21845e-14)
(-7.76655e-10 0.00193663 8.10664e-14)
(-7.80413e-10 0.00194647 1.46984e-13)
(-7.86184e-10 0.0019573 1.49109e-13)
(-7.91048e-10 0.00196813 1.47145e-13)
(-7.95747e-10 0.00197797 8.15386e-14)
(-7.93665e-10 0.00198037 8.15819e-14)
(-7.98257e-10 0.00199021 1.46534e-13)
(-8.03333e-10 0.00200104 1.49453e-13)
(-8.08775e-10 0.00201187 1.46823e-13)
(-8.12993e-10 0.0020217 8.17773e-14)
(-8.11311e-10 0.00202411 8.13655e-14)
(-8.15571e-10 0.00203395 1.46694e-13)
(-8.20923e-10 0.00204478 1.49289e-13)
(-8.26136e-10 0.00205561 1.46925e-13)
(-8.30543e-10 0.00206544 8.16625e-14)
(-8.28706e-10 0.00206785 8.14451e-14)
(-8.33094e-10 0.00207769 1.46608e-13)
(-8.38341e-10 0.00208852 1.49334e-13)
(-8.43639e-10 0.00209935 1.46853e-13)
(-8.47977e-10 0.00210918 8.16961e-14)
(-8.46194e-10 0.00211159 8.13992e-14)
(-8.50542e-10 0.00212143 1.4663e-13)
(-8.55817e-10 0.00213226 1.49286e-13)
(-8.61096e-10 0.00214308 1.46866e-13)
(-8.65444e-10 0.00215292 8.16552e-14)
(-8.63662e-10 0.00215533 8.14227e-14)
(-8.67999e-10 0.00216517 1.46587e-13)
(-8.73295e-10 0.002176 1.49303e-13)
(-8.78543e-10 0.00218682 1.46813e-13)
(-8.82932e-10 0.00219666 8.16842e-14)
(-8.81095e-10 0.00219906 8.13716e-14)
(-8.85503e-10 0.00220891 1.46627e-13)
(-8.90711e-10 0.00221973 1.49226e-13)
(-8.96067e-10 0.00223056 1.46868e-13)
(-9.00325e-10 0.0022404 8.15878e-14)
(-8.98648e-10 0.0022428 8.14683e-14)
(-9.02863e-10 0.00225264 1.46493e-13)
(-9.08303e-10 0.00226347 1.49357e-13)
(-9.13378e-10 0.0022743 1.46678e-13)
(-9.17973e-10 0.00228414 8.17859e-14)
(-9.15892e-10 0.00228654 8.12137e-14)
(-9.20593e-10 0.00229638 1.46781e-13)
(-9.25449e-10 0.00230721 1.48985e-13)
(-9.31226e-10 0.00231804 1.47092e-13)
(-9.34979e-10 0.00232788 8.12611e-14)
(-9.33908e-10 0.00233028 8.18312e-14)
(-9.37398e-10 0.00234012 1.46064e-13)
(-9.43711e-10 0.00235096 1.50558e-13)
(-9.47822e-10 0.00236188 1.50698e-13)
(-9.54137e-10 0.00237271 1.46402e-13)
(-9.5763e-10 0.00238255 8.21437e-14)
(-9.56552e-10 0.00238495 8.10829e-14)
(-9.60309e-10 0.00239479 1.46988e-13)
(-9.66081e-10 0.00240562 1.4909e-13)
(-9.70943e-10 0.00241645 1.47101e-13)
(-9.75643e-10 0.00242629 8.15033e-14)
(-9.7356e-10 0.00242869 8.15973e-14)
(-9.78155e-10 0.00243853 1.46542e-13)
(-9.83228e-10 0.00244936 1.49436e-13)
(-9.88673e-10 0.00246019 1.46786e-13)
(-9.92887e-10 0.00247003 8.17419e-14)
(-9.9121e-10 0.00247243 8.13854e-14)
(-9.95465e-10 0.00248227 1.46701e-13)
(-1.00082e-09 0.0024931 1.4928e-13)
(-1.00603e-09 0.00250393 1.46886e-13)
(-1.01044e-09 0.00251376 8.16373e-14)
(-1.0086e-09 0.00251617 8.14569e-14)
(-1.013e-09 0.00252601 1.46628e-13)
(-1.01823e-09 0.00253684 1.49315e-13)
(-1.02354e-09 0.00254767 1.46834e-13)
(-1.02786e-09 0.0025575 8.16548e-14)
(-1.0261e-09 0.00255991 8.14342e-14)
(-1.03042e-09 0.00256975 1.46625e-13)
(-1.03573e-09 0.00258058 1.49302e-13)
(-1.04097e-09 0.0025914 1.46811e-13)
(-1.04537e-09 0.00260124 8.16632e-14)
(-1.04352e-09 0.00260365 8.14023e-14)
(-1.04794e-09 0.00261349 1.46651e-13)
(-1.05314e-09 0.00262432 1.49241e-13)
(-1.0585e-09 0.00263514 1.46859e-13)
(-1.06275e-09 0.00264498 8.15776e-14)
(-1.06108e-09 0.00264739 8.14919e-14)
(-1.06529e-09 0.00265723 1.46525e-13)
(-1.07074e-09 0.00266805 1.49369e-13)
(-1.07581e-09 0.00267888 1.46675e-13)
(-1.08041e-09 0.00268872 8.17739e-14)
(-1.07832e-09 0.00269112 8.12405e-14)
(-1.08302e-09 0.00270096 1.46811e-13)
(-1.08788e-09 0.00271179 1.49001e-13)
(-1.09366e-09 0.00272262 1.4709e-13)
(-1.09741e-09 0.00273246 8.12519e-14)
(-1.09634e-09 0.00273486 8.18576e-14)
(-1.09983e-09 0.0027447 1.46096e-13)
(-1.10614e-09 0.00275554 1.50574e-13)
(-1.11025e-09 0.00276646 1.50695e-13)
(-1.11657e-09 0.00277729 1.46383e-13)
(-1.12006e-09 0.00278713 8.21252e-14)
(-1.11898e-09 0.00278954 8.10986e-14)
(-1.12274e-09 0.00279938 1.47002e-13)
(-1.12851e-09 0.0028102 1.49089e-13)
(-1.13338e-09 0.00282103 1.47086e-13)
(-1.13807e-09 0.00283087 8.14857e-14)
(-1.13599e-09 0.00283327 8.16149e-14)
(-1.14059e-09 0.00284311 1.46557e-13)
(-1.14566e-09 0.00285394 1.49438e-13)
(-1.1511e-09 0.00286477 1.46771e-13)
(-1.15532e-09 0.00287461 8.1729e-14)
(-1.15364e-09 0.00287701 8.13998e-14)
(-1.1579e-09 0.00288685 1.46721e-13)
(-1.16325e-09 0.00289768 1.4928e-13)
(-1.16846e-09 0.00290851 1.4688e-13)
(-1.17287e-09 0.00291835 8.16184e-14)
(-1.17103e-09 0.00292075 8.14811e-14)
(-1.17542e-09 0.00293059 1.46638e-13)
(-1.18067e-09 0.00294142 1.4933e-13)
(-1.18597e-09 0.00295225 1.46814e-13)
(-1.1903e-09 0.00296208 8.16563e-14)
(-1.18852e-09 0.00296449 8.14361e-14)
(-1.19287e-09 0.00297433 1.46664e-13)
(-1.19815e-09 0.00298516 1.49286e-13)
(-1.20342e-09 0.00299599 1.46832e-13)
(-1.20777e-09 0.00300582 8.1619e-14)
(-1.20599e-09 0.00300823 8.14611e-14)
(-1.21033e-09 0.00301807 1.46623e-13)
(-1.21562e-09 0.0030289 1.49307e-13)
(-1.22087e-09 0.00303973 1.46784e-13)
(-1.22526e-09 0.00304956 8.16518e-14)
(-1.22342e-09 0.00305197 8.14106e-14)
(-1.22783e-09 0.00306181 1.46667e-13)
(-1.23304e-09 0.00307264 1.49235e-13)
(-1.23839e-09 0.00308346 1.46845e-13)
(-1.24265e-09 0.0030933 8.15584e-14)
(-1.24098e-09 0.00309571 8.15086e-14)
(-1.24519e-09 0.00310555 1.46536e-13)
(-1.25063e-09 0.00311637 1.4937e-13)
(-1.25571e-09 0.0031272 1.4666e-13)
(-1.2603e-09 0.00313704 8.17602e-14)
(-1.25822e-09 0.00313944 8.12543e-14)
(-1.26292e-09 0.00314928 1.46826e-13)
(-1.26778e-09 0.00316011 1.49001e-13)
(-1.27355e-09 0.00317094 1.47079e-13)
(-1.27731e-09 0.00318078 8.12372e-14)
(-1.27623e-09 0.00318318 8.1874e-14)
(-1.27973e-09 0.00319302 1.4611e-13)
(-1.28604e-09 0.00320386 1.50578e-13)
(-1.29015e-09 0.00321478 1.5068e-13)
(-1.29646e-09 0.00322561 1.46358e-13)
(-1.29996e-09 0.00323545 8.21031e-14)
(-1.29888e-09 0.00323786 8.11067e-14)
(-1.30264e-09 0.0032477 1.47002e-13)
(-1.30841e-09 0.00325852 1.49078e-13)
(-1.31327e-09 0.00326935 1.47061e-13)
(-1.31797e-09 0.00327919 8.14673e-14)
(-1.31589e-09 0.00328159 8.16212e-14)
(-1.32048e-09 0.00329143 1.46561e-13)
(-1.32556e-09 0.00330226 1.49427e-13)
(-1.331e-09 0.00331309 1.46751e-13)
(-1.33521e-09 0.00332293 8.17084e-14)
(-1.33354e-09 0.00332533 8.14109e-14)
(-1.33779e-09 0.00333517 1.46722e-13)
(-1.34315e-09 0.003346 1.49275e-13)
(-1.34836e-09 0.00335683 1.46856e-13)
(-1.35277e-09 0.00336667 8.1607e-14)
(-1.35092e-09 0.00336907 8.14833e-14)
(-1.35533e-09 0.00337891 1.46651e-13)
(-1.36056e-09 0.00338974 1.49314e-13)
(-1.36587e-09 0.00340057 1.46808e-13)
(-1.37019e-09 0.00341041 8.1627e-14)
(-1.36843e-09 0.00341281 8.14618e-14)
(-1.37275e-09 0.00342265 1.46651e-13)
(-1.37806e-09 0.00343348 1.49304e-13)
(-1.3833e-09 0.00344431 1.46789e-13)
(-1.3877e-09 0.00345414 8.16382e-14)
(-1.38585e-09 0.00345655 8.14305e-14)
(-1.39027e-09 0.00346639 1.46679e-13)
(-1.39547e-09 0.00347722 1.49246e-13)
(-1.40083e-09 0.00348805 1.4684e-13)
(-1.40508e-09 0.00349788 8.15548e-14)
(-1.40341e-09 0.00350029 8.15213e-14)
(-1.40762e-09 0.00351013 1.46555e-13)
(-1.41306e-09 0.00352096 1.49377e-13)
(-1.41814e-09 0.00353178 1.4666e-13)
(-1.42273e-09 0.00354162 8.17538e-14)
(-1.42065e-09 0.00354403 8.12702e-14)
(-1.42535e-09 0.00355387 1.46844e-13)
(-1.43021e-09 0.00356469 1.49011e-13)
(-1.43598e-09 0.00357552 1.47079e-13)
(-1.43974e-09 0.00358536 8.12329e-14)
(-1.43867e-09 0.00358776 8.18893e-14)
(-1.44216e-09 0.00359761 1.4613e-13)
(-1.44847e-09 0.00360844 1.50588e-13)
(-1.45258e-09 0.00361936 1.5068e-13)
(-1.4589e-09 0.0036302 1.46349e-13)
(-1.46239e-09 0.00364003 8.20936e-14)
(-1.46131e-09 0.00364244 8.1116e-14)
(-1.46507e-09 0.00365228 1.47012e-13)
(-1.47084e-09 0.00366311 1.49078e-13)
(-1.4757e-09 0.00367393 1.47054e-13)
(-1.4804e-09 0.00368377 8.14576e-14)
(-1.47832e-09 0.00368618 8.16324e-14)
(-1.48291e-09 0.00369602 1.46569e-13)
(-1.48799e-09 0.00370684 1.4943e-13)
(-1.49343e-09 0.00371767 1.46743e-13)
(-1.49765e-09 0.00372751 8.17026e-14)
(-1.49597e-09 0.00372992 8.14187e-14)
(-1.50023e-09 0.00373975 1.46736e-13)
(-1.50558e-09 0.00375058 1.49275e-13)
(-1.51079e-09 0.00376141 1.46855e-13)
(-1.5152e-09 0.00377125 8.15944e-14)
(-1.51336e-09 0.00377365 8.15006e-14)
(-1.51775e-09 0.00378349 1.46655e-13)
(-1.523e-09 0.00379432 1.49327e-13)
(-1.52829e-09 0.00380515 1.46793e-13)
(-1.53263e-09 0.00381499 8.16341e-14)
(-1.53085e-09 0.00381739 8.14567e-14)
(-1.5352e-09 0.00382723 1.46683e-13)
(-1.54047e-09 0.00383806 1.49286e-13)
(-1.54575e-09 0.00384889 1.46814e-13)
(-1.5501e-09 0.00385873 8.1599e-14)
(-1.54832e-09 0.00386113 8.14822e-14)
(-1.55265e-09 0.00387097 1.46644e-13)
(-1.55795e-09 0.0038818 1.4931e-13)
(-1.5632e-09 0.00389263 1.46769e-13)
(-1.56759e-09 0.00390246 8.16333e-14)
(-1.56575e-09 0.00390487 8.14329e-14)
(-1.57016e-09 0.00391471 1.46689e-13)
(-1.57537e-09 0.00392554 1.49239e-13)
(-1.58072e-09 0.00393637 1.46832e-13)
(-1.58498e-09 0.0039462 8.1542e-14)
(-1.5833e-09 0.00394861 8.15313e-14)
(-1.58752e-09 0.00395845 1.4656e-13)
(-1.59296e-09 0.00396928 1.49377e-13)
(-1.59803e-09 0.0039801 1.46649e-13)
(-1.60263e-09 0.00398994 8.17453e-14)
(-1.60055e-09 0.00399235 8.12778e-14)
(-1.60525e-09 0.00400219 1.46852e-13)
(-1.61011e-09 0.00401301 1.49009e-13)
(-1.61588e-09 0.00402384 1.47071e-13)
(-1.61963e-09 0.00403368 8.12236e-14)
(-1.61856e-09 0.00403609 8.18985e-14)
(-1.62205e-09 0.00404593 1.46137e-13)
(-1.62837e-09 0.00405676 1.50589e-13)
(-1.63248e-09 0.00406768 1.5067e-13)
(-1.63879e-09 0.00407852 1.46333e-13)
(-1.64228e-09 0.00408835 8.20797e-14)
(-1.64121e-09 0.00409076 8.11204e-14)
(-1.64496e-09 0.0041006 1.47011e-13)
(-1.65074e-09 0.00411143 1.4907e-13)
(-1.6556e-09 0.00412225 1.47038e-13)
(-1.6603e-09 0.00413209 8.1446e-14)
(-1.65822e-09 0.0041345 8.16355e-14)
(-1.66281e-09 0.00414434 1.46571e-13)
(-1.66788e-09 0.00415517 1.49421e-13)
(-1.67333e-09 0.00416599 1.4673e-13)
(-1.67754e-09 0.00417583 8.16889e-14)
(-1.67587e-09 0.00417824 8.14258e-14)
(-1.68012e-09 0.00418808 1.46734e-13)
(-1.68548e-09 0.0041989 1.49272e-13)
(-1.69068e-09 0.00420973 1.46838e-13)
(-1.6951e-09 0.00421957 8.15887e-14)
(-1.69325e-09 0.00422197 8.14992e-14)
(-1.69765e-09 0.00423181 1.46665e-13)
(-1.70288e-09 0.00424264 1.49313e-13)
(-1.7082e-09 0.00425347 1.46792e-13)
(-1.71252e-09 0.00426331 8.16105e-14)
(-1.71076e-09 0.00426571 8.14781e-14)
(-1.71508e-09 0.00427555 1.46666e-13)
(-1.72039e-09 0.00428638 1.49305e-13)
(-1.72562e-09 0.00429721 1.46775e-13)
(-1.73002e-09 0.00430705 8.16229e-14)
(-1.72818e-09 0.00430945 8.14478e-14)
(-1.73259e-09 0.00431929 1.46696e-13)
(-1.7378e-09 0.00433012 1.49249e-13)
(-1.74316e-09 0.00434095 1.46829e-13)
(-1.74741e-09 0.00435078 8.15411e-14)
(-1.74574e-09 0.00435319 8.1539e-14)
(-1.74995e-09 0.00436303 1.46574e-13)
(-1.75539e-09 0.00437386 1.49381e-13)
(-1.76046e-09 0.00438469 1.46651e-13)
(-1.76506e-09 0.00439452 8.17413e-14)
(-1.76298e-09 0.00439693 8.12887e-14)
(-1.76768e-09 0.00440677 1.46864e-13)
(-1.77254e-09 0.0044176 1.49017e-13)
(-1.77831e-09 0.00442842 1.47072e-13)
(-1.78207e-09 0.00443826 8.12215e-14)
(-1.78099e-09 0.00444067 8.19085e-14)
(-1.78448e-09 0.00445051 1.4615e-13)
(-1.7908e-09 0.00446134 1.50596e-13)
(-1.79491e-09 0.00447226 1.50671e-13)
(-1.80122e-09 0.0044831 1.46328e-13)
(-1.80472e-09 0.00449294 8.20742e-14)
(-1.80364e-09 0.00449534 8.11266e-14)
(-1.8074e-09 0.00450518 1.47018e-13)
(-1.81317e-09 0.00451601 1.49071e-13)
(-1.81803e-09 0.00452684 1.47034e-13)
(-1.82273e-09 0.00453667 8.14398e-14)
(-1.82065e-09 0.00453908 8.16435e-14)
(-1.82524e-09 0.00454892 1.46577e-13)
(-1.83032e-09 0.00455975 1.49425e-13)
(-1.83576e-09 0.00457057 1.46725e-13)
(-1.83997e-09 0.00458041 8.16863e-14)
(-1.83829e-09 0.00458282 8.14303e-14)
(-1.84255e-09 0.00459266 1.46745e-13)
(-1.84791e-09 0.00460349 1.49271e-13)
(-1.85312e-09 0.00461431 1.46839e-13)
(-1.85753e-09 0.00462415 8.15791e-14)
(-1.85569e-09 0.00462656 8.15131e-14)
(-1.86008e-09 0.0046364 1.46666e-13)
(-1.86532e-09 0.00464722 1.49326e-13)
(-1.87062e-09 0.00465805 1.46779e-13)
(-1.87496e-09 0.00466789 8.16202e-14)
(-1.87318e-09 0.00467029 8.14696e-14)
(-1.87752e-09 0.00468013 1.46695e-13)
(-1.8828e-09 0.00469096 1.49286e-13)
(-1.88808e-09 0.00470179 1.46802e-13)
(-1.89243e-09 0.00471163 8.1586e-14)
(-1.89064e-09 0.00471403 8.1496e-14)
(-1.89498e-09 0.00472387 1.46658e-13)
(-1.90028e-09 0.0047347 1.49311e-13)
(-1.90553e-09 0.00474553 1.46759e-13)
(-1.90991e-09 0.00475537 8.16217e-14)
(-1.90808e-09 0.00475777 8.14469e-14)
(-1.91249e-09 0.00476761 1.46704e-13)
(-1.91769e-09 0.00477844 1.49242e-13)
(-1.92305e-09 0.00478927 1.46824e-13)
(-1.92731e-09 0.00479911 8.15312e-14)
(-1.92563e-09 0.00480151 8.15462e-14)
(-1.92985e-09 0.00481135 1.46576e-13)
(-1.93529e-09 0.00482218 1.49381e-13)
(-1.94036e-09 0.00483301 1.46642e-13)
(-1.94496e-09 0.00484284 8.17358e-14)
(-1.94287e-09 0.00484525 8.12928e-14)
(-1.94758e-09 0.00485509 1.46869e-13)
(-1.95243e-09 0.00486592 1.49015e-13)
(-1.95821e-09 0.00487674 1.47067e-13)
(-1.96196e-09 0.00488658 8.12145e-14)
(-1.96089e-09 0.00488899 8.19148e-14)
(-1.96438e-09 0.00489883 1.46154e-13)
(-1.97069e-09 0.00490966 1.50596e-13)
(-1.9748e-09 0.00492058 1.50663e-13)
(-1.98112e-09 0.00493142 1.46317e-13)
(-1.98461e-09 0.00494126 8.20641e-14)
(-1.98354e-09 0.00494366 8.11296e-14)
(-1.98729e-09 0.0049535 1.47016e-13)
(-1.99306e-09 0.00496433 1.49066e-13)
(-1.99793e-09 0.00497516 1.47022e-13)
(-2.00263e-09 0.00498499 8.14322e-14)
(-2.00054e-09 0.0049874 8.16447e-14)
(-2.00514e-09 0.00499724 1.46578e-13)
(-2.01021e-09 0.00500807 1.49418e-13)
(-2.01566e-09 0.0050189 1.46717e-13)
(-2.01987e-09 0.00502873 8.16757e-14)
(-2.01819e-09 0.00503114 8.14359e-14)
(-2.02245e-09 0.00504098 1.46742e-13)
(-2.02781e-09 0.00505181 1.4927e-13)
(-2.03301e-09 0.00506263 1.46825e-13)
(-2.03743e-09 0.00507247 8.15769e-14)
(-2.03558e-09 0.00507488 8.15095e-14)
(-2.03998e-09 0.00508472 1.46674e-13)
(-2.04521e-09 0.00509554 1.49312e-13)
(-2.05053e-09 0.00510637 1.46782e-13)
(-2.05484e-09 0.00511621 8.15993e-14)
(-2.05309e-09 0.00511862 8.14892e-14)
(-2.0574e-09 0.00512845 1.46677e-13)
(-2.06272e-09 0.00513928 1.49306e-13)
(-2.06795e-09 0.00515011 1.46766e-13)
(-2.07235e-09 0.00515995 8.16129e-14)
(-2.0705e-09 0.00516235 8.14592e-14)
(-2.07492e-09 0.00517219 1.46708e-13)
(-2.08012e-09 0.00518302 1.4925e-13)
(-2.08548e-09 0.00519385 1.46821e-13)
(-2.08974e-09 0.00520369 8.15317e-14)
(-2.08806e-09 0.00520609 8.15511e-14)
(-2.09228e-09 0.00521593 1.46586e-13)
(-2.09772e-09 0.00522676 1.49385e-13)
(-2.10279e-09 0.00523759 1.46644e-13)
(-2.10739e-09 0.00524743 8.17331e-14)
(-2.1053e-09 0.00524983 8.13009e-14)
(-2.11001e-09 0.00525967 1.46878e-13)
(-2.11486e-09 0.0052705 1.49021e-13)
(-2.12064e-09 0.00528133 1.47067e-13)
(-2.12439e-09 0.00529116 8.12136e-14)
(-2.12332e-09 0.00529357 8.19218e-14)
(-2.12681e-09 0.00530341 1.46164e-13)
(-2.13313e-09 0.00531425 1.50602e-13)
(-2.13724e-09 0.00532516 1.50665e-13)
(-2.14355e-09 0.005336 1.46313e-13)
(-2.14704e-09 0.00534584 8.20608e-14)
(-2.14597e-09 0.00534824 8.1134e-14)
(-2.14972e-09 0.00535808 1.47022e-13)
(-2.1555e-09 0.00536891 1.49066e-13)
(-2.16036e-09 0.00537974 1.47021e-13)
(-2.16506e-09 0.00538958 8.14279e-14)
(-2.16297e-09 0.00539198 8.16509e-14)
(-2.16757e-09 0.00540182 1.46582e-13)
(-2.17264e-09 0.00541265 1.49421e-13)
(-2.17809e-09 0.00542348 1.46713e-13)
(-2.1823e-09 0.00543331 8.16749e-14)
(-2.18062e-09 0.00543572 8.14386e-14)
(-2.18488e-09 0.00544556 1.46751e-13)
(-2.19023e-09 0.00545639 1.49269e-13)
(-2.19545e-09 0.00546722 1.46829e-13)
(-2.19985e-09 0.00547705 8.15687e-14)
(-2.19802e-09 0.00547946 8.15216e-14)
(-2.2024e-09 0.0054893 1.46673e-13)
(-2.20765e-09 0.00550013 1.49324e-13)
(-2.21295e-09 0.00551095 1.46769e-13)
(-2.21729e-09 0.00552079 8.16104e-14)
(-2.2155e-09 0.0055232 8.14787e-14)
(-2.21985e-09 0.00553304 1.46703e-13)
(-2.22513e-09 0.00554386 1.49286e-13)
(-2.23041e-09 0.00555469 1.46794e-13)
(-2.23475e-09 0.00556453 8.15772e-14)
(-2.23297e-09 0.00556694 8.15053e-14)
(-2.23731e-09 0.00557677 1.46667e-13)
(-2.24261e-09 0.0055876 1.49312e-13)
(-2.24785e-09 0.00559843 1.46752e-13)
(-2.25224e-09 0.00560827 8.16135e-14)
(-2.25041e-09 0.00561067 8.14569e-14)
(-2.25481e-09 0.00562051 1.46714e-13)
(-2.26002e-09 0.00563134 1.49245e-13)
(-2.26538e-09 0.00564217 1.46818e-13)
(-2.26964e-09 0.00565201 8.15239e-14)
(-2.26796e-09 0.00565441 8.15563e-14)
(-2.27217e-09 0.00566425 1.46587e-13)
(-2.27761e-09 0.00567508 1.49384e-13)
(-2.28269e-09 0.00568591 1.46638e-13)
(-2.28728e-09 0.00569575 8.1729e-14)
(-2.2852e-09 0.00569815 8.13035e-14)
(-2.2899e-09 0.00570799 1.46881e-13)
(-2.29476e-09 0.00571882 1.49019e-13)
(-2.30054e-09 0.00572965 1.47063e-13)
(-2.30429e-09 0.00573948 8.12084e-14)
(-2.30322e-09 0.00574189 8.19259e-14)
(-2.30671e-09 0.00575173 1.46167e-13)
(-2.31302e-09 0.00576257 1.50602e-13)
(-2.31713e-09 0.00577348 1.50659e-13)
(-2.32345e-09 0.00578432 1.46305e-13)
(-2.32694e-09 0.00579416 8.20534e-14)
(-2.32586e-09 0.00579656 8.11358e-14)
(-2.32962e-09 0.0058064 1.4702e-13)
(-2.33539e-09 0.00581723 1.49062e-13)
(-2.34025e-09 0.00582806 1.47012e-13)
(-2.34495e-09 0.0058379 8.14222e-14)
(-2.34287e-09 0.0058403 8.16514e-14)
(-2.34747e-09 0.00585014 1.46583e-13)
(-2.35254e-09 0.00586097 1.49415e-13)
(-2.35798e-09 0.0058718 1.46707e-13)
(-2.3622e-09 0.00588164 8.16666e-14)
(-2.36052e-09 0.00588404 8.14428e-14)
(-2.36477e-09 0.00589388 1.46748e-13)
(-2.37013e-09 0.00590471 1.49269e-13)
(-2.37534e-09 0.00591554 1.46817e-13)
(-2.37975e-09 0.00592537 8.15682e-14)
(-2.37791e-09 0.00592778 8.15171e-14)
(-2.38231e-09 0.00593762 1.46681e-13)
(-2.38754e-09 0.00594845 1.49312e-13)
(-2.39285e-09 0.00595927 1.46774e-13)
(-2.39717e-09 0.00596911 8.15916e-14)
(-2.39541e-09 0.00597152 8.1497e-14)
(-2.39973e-09 0.00598136 1.46684e-13)
(-2.40505e-09 0.00599218 1.49306e-13)
(-2.41028e-09 0.00600301 1.4676e-13)
(-2.41468e-09 0.00601285 8.16055e-14)
(-2.41283e-09 0.00601526 8.14675e-14)
(-2.41725e-09 0.0060251 1.46716e-13)
(-2.42245e-09 0.00603592 1.49252e-13)
(-2.42781e-09 0.00604675 1.46816e-13)
(-2.43206e-09 0.00605659 8.15252e-14)
(-2.43039e-09 0.00605899 8.15596e-14)
(-2.4346e-09 0.00606883 1.46595e-13)
(-2.44005e-09 0.00607966 1.49387e-13)
(-2.44512e-09 0.00609049 1.4664e-13)
(-2.44972e-09 0.00610033 8.17269e-14)
(-2.44763e-09 0.00610273 8.13099e-14)
(-2.45233e-09 0.00611257 1.46888e-13)
(-2.45719e-09 0.0061234 1.49024e-13)
(-2.46297e-09 0.00613423 1.47064e-13)
(-2.46672e-09 0.00614407 8.1208e-14)
(-2.46565e-09 0.00614647 8.19312e-14)
(-2.46914e-09 0.00615631 1.46174e-13)
(-2.47545e-09 0.00616715 1.50606e-13)
(-2.47956e-09 0.00617807 1.5066e-13)
(-2.48588e-09 0.0061889 1.46303e-13)
(-2.48937e-09 0.00619874 8.20513e-14)
(-2.48829e-09 0.00620114 8.11392e-14)
(-2.49205e-09 0.00621098 1.47025e-13)
(-2.49782e-09 0.00622181 1.49063e-13)
(-2.50268e-09 0.00623264 1.47011e-13)
(-2.50738e-09 0.00624248 8.1419e-14)
(-2.5053e-09 0.00624488 8.16565e-14)
(-2.5099e-09 0.00625472 1.46586e-13)
(-2.51497e-09 0.00626555 1.49419e-13)
(-2.52041e-09 0.00627638 1.46704e-13)
(-2.52463e-09 0.00628622 8.16668e-14)
(-2.52295e-09 0.00628862 8.14443e-14)
(-2.52721e-09 0.00629846 1.46756e-13)
(-2.53256e-09 0.00630929 1.49267e-13)
(-2.53777e-09 0.00632012 1.46821e-13)
(-2.54218e-09 0.00632996 8.1561e-14)
(-2.54034e-09 0.00633236 8.15279e-14)
(-2.54473e-09 0.0063422 1.46678e-13)
(-2.54998e-09 0.00635303 1.49324e-13)
(-2.55528e-09 0.00636386 1.46762e-13)
(-2.55961e-09 0.00637369 8.16035e-14)
(-2.55783e-09 0.0063761 8.14852e-14)
(-2.56218e-09 0.00638594 1.46709e-13)
(-2.56746e-09 0.00639677 1.49286e-13)
(-2.57273e-09 0.00640759 1.46788e-13)
(-2.57708e-09 0.00641743 8.15706e-14)
(-2.5753e-09 0.00641984 8.15124e-14)
(-2.57964e-09 0.00642968 1.46673e-13)
(-2.58493e-09 0.00644051 1.49313e-13)
(-2.59018e-09 0.00645133 1.46746e-13)
(-2.59457e-09 0.00646117 8.16076e-14)
(-2.59273e-09 0.00646358 8.14641e-14)
(-2.59714e-09 0.00647342 1.46722e-13)
(-2.60235e-09 0.00648424 1.49246e-13)
(-2.6077e-09 0.00649507 1.46814e-13)
(-2.61196e-09 0.00650491 8.15183e-14)
(-2.61028e-09 0.00650731 8.15641e-14)
(-2.6145e-09 0.00651715 1.46595e-13)
(-2.61994e-09 0.00652798 1.49387e-13)
(-2.62502e-09 0.00653881 1.46634e-13)
(-2.62961e-09 0.00654865 8.17242e-14)
(-2.62753e-09 0.00655105 8.13112e-14)
(-2.63223e-09 0.00656089 1.4689e-13)
(-2.63709e-09 0.00657172 1.49022e-13)
(-2.64286e-09 0.00658255 1.47061e-13)
(-2.64662e-09 0.00659239 8.12036e-14)
(-2.64554e-09 0.00659479 8.19344e-14)
(-2.64904e-09 0.00660463 1.46176e-13)
(-2.65535e-09 0.00661547 1.50606e-13)
(-2.65946e-09 0.00662639 1.50655e-13)
(-2.66577e-09 0.00663722 1.46296e-13)
(-2.66927e-09 0.00664706 8.20452e-14)
(-2.66819e-09 0.00664947 8.11407e-14)
(-2.67195e-09 0.0066593 1.47023e-13)
(-2.67772e-09 0.00667013 1.4906e-13)
(-2.68258e-09 0.00668096 1.47003e-13)
(-2.68728e-09 0.0066908 8.1415e-14)
(-2.6852e-09 0.0066932 8.16562e-14)
(-2.68979e-09 0.00670304 1.46587e-13)
(-2.69487e-09 0.00671387 1.49414e-13)
(-2.70031e-09 0.0067247 1.467e-13)
(-2.70452e-09 0.00673454 8.16596e-14)
(-2.70285e-09 0.00673694 8.14482e-14)
(-2.7071e-09 0.00674678 1.46752e-13)