/*--------------------------------*- C++ -*----------------------------------*\
| =========                 |                                                 |
| \\      /  F ield         | OpenFOAM: The Open Source CFD Toolbox           |
|  \\    /   O peration     | Version:  2206                                  |
|   \\  /    A nd           | Website:  www.openfoam.com                      |
|    \\/     M anipulation  |                                                 |
\*---------------------------------------------------------------------------*/
FoamFile
{
    version     2.0;
    format      ascii;
    arch        "LSB;label=32;scalar=64";
    class       volScalarField;
    location    "460";
    object      p;
}
// * * * * * * * * * * * * * * * * * * * * * * * * * * * * * * * * * * * * * //

dimensions      [0 2 -2 0 0 0 0];

internalField   nonuniform List<scalar> 
100000
(
5.67015e-10
8.29761e-09
6.90875e-09
1.4357e-08
2.2748e-08
3.3932e-08
4.05237e-08
5.58262e-08
6.89148e-08
8.93054e-08
1.07587e-07
1.25547e-07
1.48697e-07
1.72354e-07
2.00947e-07
2.29703e-07
2.55983e-07
2.89577e-07
3.21434e-07
3.60697e-07
3.97361e-07
4.3464e-07
4.75739e-07
5.19128e-07
5.65306e-07
6.14804e-07
6.65523e-07
7.13082e-07
7.68302e-07
8.21807e-07
8.82358e-07
9.41034e-07
9.99119e-07
1.06275e-06
1.12641e-06
1.19567e-06
1.26424e-06
1.33125e-06
1.40462e-06
1.47733e-06
1.55622e-06
1.63392e-06
1.71049e-06
1.79306e-06
1.87526e-06
1.96341e-06
2.05057e-06
2.13642e-06
2.22843e-06
2.31992e-06
2.4175e-06
2.51395e-06
2.60924e-06
2.71054e-06
2.81147e-06
2.91833e-06
3.02424e-06
3.12878e-06
3.23957e-06
3.34972e-06
3.46612e-06
3.58117e-06
3.69533e-06
3.81518e-06
3.93506e-06
4.06039e-06
4.18532e-06
4.30822e-06
4.43818e-06
4.56652e-06
4.70229e-06
4.8353e-06
4.96911e-06
5.10658e-06
5.2465e-06
5.38906e-06
5.53508e-06
5.68215e-06
5.82622e-06
5.97786e-06
6.12782e-06
6.28484e-06
6.43991e-06
6.59447e-06
6.75454e-06
6.91464e-06
7.08038e-06
7.24534e-06
7.40883e-06
7.57863e-06
7.74778e-06
7.92313e-06
8.09725e-06
8.27027e-06
8.4493e-06
8.62792e-06
8.81256e-06
8.99609e-06
9.17844e-06
9.36684e-06
9.55484e-06
9.7488e-06
9.94175e-06
1.01334e-05
1.03313e-05
1.05285e-05
1.0732e-05
1.09341e-05
1.11353e-05
1.13423e-05
1.15492e-05
1.17616e-05
1.19736e-05
1.21836e-05
1.24007e-05
1.26161e-05
1.28389e-05
1.3059e-05
1.32799e-05
1.35044e-05
1.37315e-05
1.39611e-05
1.41942e-05
1.44283e-05
1.46595e-05
1.48982e-05
1.51352e-05
1.53793e-05
1.56215e-05
1.58631e-05
1.61103e-05
1.63574e-05
1.66103e-05
1.68623e-05
1.71129e-05
1.73697e-05
1.7626e-05
1.78884e-05
1.81496e-05
1.84097e-05
1.86758e-05
1.89415e-05
1.92132e-05
1.94838e-05
1.97532e-05
2.00288e-05
2.03038e-05
2.05849e-05
2.08648e-05
2.11437e-05
2.14285e-05
2.17129e-05
2.20033e-05
2.22927e-05
2.25808e-05
2.28751e-05
2.31688e-05
2.34687e-05
2.37672e-05
2.40649e-05
2.43683e-05
2.46717e-05
2.49806e-05
2.5289e-05
2.55954e-05
2.59089e-05
2.62207e-05
2.65401e-05
2.68565e-05
2.71739e-05
2.74949e-05
2.78183e-05
2.81444e-05
2.8474e-05
2.88045e-05
2.91321e-05
2.94673e-05
2.98008e-05
3.01413e-05
3.04799e-05
3.0818e-05
3.11615e-05
3.15052e-05
3.18544e-05
3.22029e-05
3.25499e-05
3.29032e-05
3.32559e-05
3.36148e-05
3.39724e-05
3.43289e-05
3.46915e-05
3.50536e-05
3.54218e-05
3.57888e-05
3.61547e-05
3.65266e-05
3.68981e-05
3.72756e-05
3.76521e-05
3.80272e-05
3.84086e-05
3.87893e-05
3.91764e-05
3.9562e-05
3.99467e-05
4.03372e-05
4.07277e-05
4.11236e-05
4.15191e-05
4.19126e-05
4.23132e-05
4.27121e-05
4.31185e-05
4.3522e-05
4.39265e-05
4.43345e-05
4.47451e-05
4.51582e-05
4.55748e-05
4.59925e-05
4.64072e-05
4.68294e-05
4.72499e-05
4.76776e-05
4.81032e-05
4.85284e-05
4.8959e-05
4.93897e-05
4.98261e-05
5.02616e-05
5.06957e-05
5.11361e-05
5.15758e-05
5.20218e-05
5.24665e-05
5.29101e-05
5.33597e-05
5.3809e-05
5.42642e-05
5.47183e-05
5.51712e-05
5.56303e-05
5.60888e-05
5.65535e-05
5.70169e-05
5.74792e-05
5.79476e-05
5.84155e-05
5.88895e-05
5.93624e-05
5.9834e-05
6.03118e-05
6.0789e-05
6.12724e-05
6.17545e-05
6.22357e-05
6.27226e-05
6.32095e-05
6.37019e-05
6.41938e-05
6.46837e-05
6.51807e-05
6.56761e-05
6.61789e-05
6.66789e-05
6.71798e-05
6.76843e-05
6.81913e-05
6.87008e-05
6.92139e-05
6.9728e-05
7.02391e-05
7.07578e-05
7.12748e-05
7.17988e-05
7.23209e-05
7.28425e-05
7.33696e-05
7.38968e-05
7.44295e-05
7.49615e-05
7.54921e-05
7.60289e-05
7.65651e-05
7.71075e-05
7.76486e-05
7.81887e-05
7.87347e-05
7.92804e-05
7.98321e-05
8.03826e-05
8.0932e-05
8.14874e-05
8.20425e-05
8.26035e-05
8.31634e-05
8.37221e-05
8.4287e-05
8.48513e-05
8.54218e-05
8.59909e-05
8.65592e-05
8.71332e-05
8.77072e-05
8.82866e-05
8.88656e-05
8.94427e-05
9.00267e-05
9.06092e-05
9.11991e-05
9.17862e-05
9.23741e-05
9.29657e-05
9.35597e-05
9.41564e-05
9.47565e-05
9.53577e-05
9.59559e-05
9.65616e-05
9.71657e-05
9.77768e-05
9.8386e-05
9.89947e-05
9.96089e-05
0.000100223
0.000100843
0.000101462
0.00010208
0.000102703
0.000103327
0.000103956
0.000104584
0.000105212
0.000105845
0.000106477
0.000107116
0.000107754
0.00010839
0.000109033
0.000109675
0.000110323
0.00011097
0.000111616
0.000112268
0.000112919
0.000113577
0.000114233
0.000114888
0.000115549
0.00011621
0.000116877
0.000117543
0.000118207
0.000118878
0.000119548
0.000120224
0.0001209
0.000121573
0.000122254
0.000122932
0.000123619
0.000124302
0.000124987
0.000125675
0.000126365
0.000127058
0.000127755
0.000128452
0.000129147
0.000129849
0.00013055
0.000131257
0.000131963
0.000132668
0.000133379
0.000134089
0.000134806
0.000135521
0.000136235
0.000136956
0.000137675
0.000138401
0.000139126
0.000139849
0.000140579
0.000141308
0.000142043
0.000142777
0.00014351
0.000144249
0.000144988
0.000145732
0.000146476
0.000147218
0.000147966
0.000148714
0.000149468
0.000150221
0.000150973
0.00015173
0.000152488
0.000153251
0.000154013
0.000154774
0.000155541
0.000156307
0.000157081
0.000157851
0.000158623
0.000159398
0.000160175
0.000160956
0.000161739
0.000162524
0.000163306
0.000164095
0.000164882
0.000165677
0.00016647
0.000167262
0.00016806
0.000168857
0.000169661
0.000170463
0.000171264
0.000172072
0.000172879
0.000173692
0.000174503
0.000175314
0.000176131
0.000176947
0.000177769
0.00017859
0.00017941
0.000180236
0.000181062
0.000181894
0.000182724
0.000183553
0.000184389
0.000185224
0.000186065
0.000186905
0.000187743
0.000188588
0.000189432
0.000190283
0.000191132
0.00019198
0.000192834
0.000193688
0.000194547
0.000195406
0.000196263
0.000197127
0.00019799
0.00019886
0.000199727
0.000200595
0.000201466
0.00020234
0.000203217
0.000204097
0.000204978
0.000205856
0.000206742
0.000207626
0.000208517
0.000209406
0.000210295
0.000211189
0.000212083
0.000212983
0.000213882
0.000214779
0.000215683
0.000216586
0.000217496
0.000218404
0.000219311
0.000220224
0.000221137
0.000222056
0.000222973
0.00022389
0.000224812
0.000225734
0.000226662
0.000227589
0.000228515
0.000229447
0.000230378
0.000231316
0.000232252
0.000233187
0.000234128
0.000235069
0.000236016
0.000236962
0.000237906
0.000238857
0.000239806
0.000240763
0.000241717
0.000242672
0.000243631
0.000244592
0.000245556
0.000246523
0.000247491
0.000248456
0.000249429
0.0002504
0.000251378
0.000252354
0.00025333
0.000254311
0.000255293
0.00025628
0.000257266
0.00025825
0.000259241
0.000260231
0.000261228
0.000262223
0.000263217
0.000264218
0.000265217
0.000266223
0.000267228
0.000268231
0.000269241
0.00027025
0.000271265
0.000272279
0.000273292
0.000274311
0.000275329
0.000276354
0.000277377
0.000278399
0.000279428
0.000280456
0.00028149
0.000282522
0.000283554
0.000284591
0.000285629
0.000286672
0.000287714
0.000288755
0.000289802
0.000290848
0.000291901
0.000292952
0.000294003
0.000295058
0.000296116
0.000297176
0.00029824
0.000299304
0.000300366
0.000301435
0.000302503
0.000303577
0.00030465
0.000305722
0.0003068
0.000307877
0.000308961
0.000310043
0.000311124
0.000312212
0.000313299
0.000314391
0.000315483
0.000316574
0.00031767
0.000318767
0.000319869
0.00032097
0.00032207
0.000323176
0.000324281
0.000325393
0.000326503
0.000327613
0.000328728
0.000329843
0.000330964
0.000332084
0.000333202
0.000334327
0.000335452
0.000336582
0.000337711
0.000338839
0.000339973
0.000341106
0.000342247
0.000343384
0.000344523
0.000345665
0.00034681
0.000347957
0.000349107
0.000350259
0.000351408
0.000352564
0.000353719
0.00035488
0.00035604
0.000357199
0.000358364
0.000359529
0.000360699
0.000361869
0.000363037
0.000364211
0.000365385
0.000366565
0.000367744
0.000368922
0.000370105
0.000371289
0.000372478
0.000373666
0.000374853
0.000376046
0.000377239
0.000378438
0.000379635
0.000380831
0.000382034
0.000383236
0.000384444
0.000385651
0.000386856
0.000388068
0.00038928
0.000390497
0.000391713
0.000392929
0.000394149
0.00039537
0.000396597
0.000397823
0.000399047
0.000400278
0.000401507
0.000402744
0.000403978
0.000405213
0.000406452
0.000407693
0.000408936
0.000410184
0.000411432
0.000412677
0.00041393
0.000415181
0.000416439
0.000417695
0.000418951
0.000420212
0.000421473
0.00042274
0.000424006
0.00042527
0.000426541
0.000427812
0.000429088
0.000430363
0.000431637
0.000432917
0.000434197
0.000435483
0.000436768
0.000438051
0.00043934
0.00044063
0.000441925
0.000443219
0.000444511
0.00044581
0.000447109
0.000448413
0.000449716
0.000451019
0.000452327
0.000453635
0.000454948
0.000456261
0.000457573
0.000458891
0.000460207
0.000461531
0.000462852
0.000464174
0.0004655
0.000466828
0.000468159
0.000469493
0.000470828
0.00047216
0.0004735
0.000474838
0.000476184
0.000477527
0.00047887
0.000480218
0.000481566
0.00048292
0.000484273
0.000485625
0.000486983
0.00048834
0.000489704
0.000491066
0.000492427
0.000493794
0.000495161
0.000496534
0.000497906
0.000499276
0.000500653
0.000502029
0.000503411
0.000504792
0.000506172
0.000507558
0.000508943
0.000510335
0.000511725
0.000513114
0.00051451
0.000515905
0.000517306
0.000518705
0.000520104
0.000521509
0.000522913
0.000524323
0.000525732
0.00052714
0.000528555
0.000529968
0.000531388
0.000532806
0.000534224
0.000535646
0.000537071
0.000538498
0.000539928
0.00054136
0.000542789
0.000544225
0.00054566
0.000547101
0.000548541
0.00054998
0.000551425
0.000552869
0.00055432
0.000555769
0.000557217
0.000558672
0.000560126
0.000561586
0.000563044
0.000564502
0.000565966
0.000567429
0.000568898
0.000570366
0.000571833
0.000573306
0.000574779
0.000576257
0.000577735
0.000579211
0.000580694
0.000582175
0.000583664
0.00058515
0.000586636
0.000588128
0.000589619
0.000591116
0.000592613
0.000594107
0.000595609
0.000597109
0.000598617
0.000600121
0.000601627
0.000603136
0.000604647
0.000606162
0.000607679
0.000609198
0.000610714
0.000612237
0.000613759
0.000615288
0.000616814
0.000618341
0.000619872
0.000621404
0.000622942
0.000624478
0.000626013
0.000627555
0.000629096
0.000630643
0.000632189
0.000633733
0.000635284
0.000636834
0.000638391
0.000639946
0.0006415
0.00064306
0.00064462
0.000646185
0.00064775
0.000649313
0.000650883
0.000652452
0.000654027
0.000655601
0.000657173
0.000658752
0.000660331
0.000661915
0.000663498
0.000665081
0.000666669
0.000668257
0.00066985
0.000671443
0.000673034
0.000674632
0.000676229
0.000677833
0.000679434
0.000681036
0.000682641
0.000684249
0.00068586
0.000687474
0.000689089
0.000690701
0.000692321
0.000693939
0.000695564
0.000697188
0.00069881
0.000700439
0.000702067
0.000703701
0.000705334
0.000706965
0.000708603
0.000710241
0.000711884
0.000713526
0.000715167
0.000716815
0.000718461
0.000720114
0.000721766
0.000723416
0.000725073
0.000726729
0.000728391
0.000730052
0.000731712
0.000733378
0.000735043
0.000736715
0.000738385
0.000740054
0.000741729
0.000743404
0.000745085
0.000746765
0.000748443
0.000750128
0.000751812
0.000753503
0.000755191
0.00075688
0.000758573
0.000760268
0.000761966
0.000763667
0.000765369
0.000767068
0.000768775
0.00077048
0.000772193
0.000773903
0.000775613
0.000777328
0.000779043
0.000780764
0.000782484
0.000784203
0.000785928
0.000787652
0.000789383
0.000791112
0.00079284
0.000794575
0.000796308
0.000798048
0.000799787
0.000801525
0.000803268
0.000805011
0.000806761
0.000808509
0.000810256
0.000812008
0.000813761
0.00081552
0.000817277
0.000819033
0.000820796
0.000822558
0.000824326
0.000826092
0.000827858
0.00082963
0.000831401
0.000833178
0.000834955
0.000836729
0.000838511
0.000840291
0.000842078
0.000843863
0.000845648
0.000847437
0.000849229
0.000851023
0.000852821
0.000854619
0.000856415
0.000858218
0.00086002
0.000861829
0.000863635
0.000865442
0.000867253
0.000869065
0.000870882
0.000872699
0.000874514
0.000876336
0.000878156
0.000879983
0.000881809
0.000883634
0.000885464
0.000887295
0.000889131
0.000890966
0.0008928
0.00089464
0.00089648
0.000898325
0.00090017
0.000902013
0.000903863
0.000905712
0.000907567
0.00090942
0.000911273
0.000913132
0.000914991
0.000916855
0.000918718
0.00092058
0.000922449
0.000924316
0.00092619
0.000928062
0.000929934
0.00093181
0.000933689
0.00093557
0.000937455
0.000939341
0.000941224
0.000943114
0.000945003
0.000946898
0.000948792
0.000950686
0.000952584
0.000954483
0.000956388
0.000958291
0.000960193
0.000962102
0.00096401
0.000965924
0.000967837
0.000969748
0.000971666
0.000973584
0.000975507
0.000977429
0.00097935
0.000981277
0.000983204
0.000985137
0.000987068
0.000988999
0.000990935
0.000992871
0.000994813
0.000996754
0.000998694
0.00100064
0.00100259
0.00100454
0.00100649
0.00100844
0.00101039
0.00101235
0.00101431
0.00101627
0.00101823
0.00102019
0.00102215
0.00102412
0.00102609
0.00102806
0.00103003
0.00103201
0.00103399
0.00103597
0.00103795
0.00103993
0.00104192
0.0010439
0.00104589
0.00104788
0.00104987
0.00105187
0.00105386
0.00105587
0.00105787
0.00105986
0.00106187
0.00106387
0.00106588
0.00106789
0.0010699
0.00107192
0.00107393
0.00107595
0.00107797
0.00107999
0.00108201
0.00108403
0.00108606
0.00108809
0.00109012
0.00109215
0.00109418
0.00109622
0.00109826
0.00110029
0.00110234
0.00110438
0.00110643
0.00110847
0.00111052
0.00111257
0.00111462
0.00111668
0.00111873
0.00112079
0.00112285
0.00112491
0.00112698
0.00112904
0.00113111
0.00113318
0.00113525
0.00113733
0.00113941
0.00114148
0.00114356
0.00114564
0.00114772
0.00114981
0.0011519
0.00115398
0.00115608
0.00115817
0.00116027
0.00116236
0.00116446
0.00116656
0.00116866
0.00117077
0.00117287
0.00117498
0.00117709
0.0011792
0.00118131
0.00118343
0.00118554
0.00118766
0.00118978
0.00119191
0.00119403
0.00119616
0.00119829
0.00120041
0.00120255
0.00120468
0.00120682
0.00120895
0.00121109
0.00121324
0.00121538
0.00121752
0.00121967
0.00122182
0.00122397
0.00122612
0.00122828
0.00123043
0.00123259
0.00123475
0.00123692
0.00123908
0.00124125
0.00124342
0.00124558
0.00124776
0.00124993
0.00125211
0.00125429
0.00125646
0.00125865
0.00126083
0.00126301
0.0012652
0.00126739
0.00126958
0.00127178
0.00127397
0.00127617
0.00127836
0.00128057
0.00128277
0.00128497
0.00128718
0.00128938
0.0012916
0.00129381
0.00129602
0.00129824
0.00130045
0.00130267
0.00130489
0.00130711
0.00130934
0.00131157
0.0013138
0.00131603
0.00131826
0.00132049
0.00132273
0.00132497
0.00132721
0.00132945
0.00133169
0.00133393
0.00133618
0.00133843
0.00134069
0.00134294
0.00134519
0.00134745
0.00134971
0.00135197
0.00135423
0.0013565
0.00135877
0.00136104
0.00136331
0.00136558
0.00136785
0.00137013
0.00137241
0.00137469
0.00137697
0.00137925
0.00138154
0.00138383
0.00138612
0.0013884
0.0013907
0.00139299
0.00139529
0.00139759
0.00139989
0.00140219
0.00140449
0.0014068
0.00140911
0.00141142
0.00141373
0.00141604
0.00141836
0.00142068
0.001423
0.00142532
0.00142764
0.00142997
0.00143229
0.00143462
0.00143695
0.00143928
0.00144162
0.00144396
0.00144629
0.00144863
0.00145097
0.00145332
0.00145567
0.00145802
0.00146036
0.00146272
0.00146507
0.00146743
0.00146978
0.00147214
0.0014745
0.00147687
0.00147923
0.0014816
0.00148397
0.00148634
0.00148871
0.00149109
0.00149346
0.00149584
0.00149822
0.0015006
0.00150299
0.00150537
0.00150776
0.00151015
0.00151254
0.00151493
0.00151733
0.00151972
0.00152212
0.00152452
0.00152693
0.00152933
0.00153174
0.00153415
0.00153655
0.00153897
0.00154138
0.0015438
0.00154621
0.00154863
0.00155106
0.00155348
0.0015559
0.00155833
0.00156076
0.00156319
0.00156563
0.00156806
0.0015705
0.00157294
0.00157538
0.00157782
0.00158027
0.00158271
0.00158516
0.00158761
0.00159006
0.00159252
0.00159497
0.00159743
0.00159989
0.00160235
0.00160482
0.00160728
0.00160975
0.00161221
0.00161469
0.00161716
0.00161963
0.00162211
0.00162459
0.00162707
0.00162955
0.00163203
0.00163452
0.00163701
0.0016395
0.00164199
0.00164448
0.00164698
0.00164947
0.00165198
0.00165448
0.00165698
0.00165948
0.00166199
0.0016645
0.00166701
0.00166952
0.00167203
0.00167455
0.00167707
0.00167959
0.00168211
0.00168463
0.00168716
0.00168968
0.00169222
0.00169475
0.00169728
0.00169982
0.00170235
0.00170489
0.00170744
0.00170998
0.00171252
0.00171507
0.00171762
0.00172017
0.00172272
0.00172527
0.00172783
0.00173039
0.00173295
0.00173551
0.00173807
0.00174064
0.00174321
0.00174578
0.00174835
0.00175092
0.00175349
0.00175607
0.00175865
0.00176123
0.00176381
0.0017664
0.00176898
0.00177157
0.00177416
0.00177675
0.00177934
0.00178194
0.00178454
0.00178714
0.00178974
0.00179234
0.00179495
0.00179755
0.00180016
0.00180277
0.00180538
0.001808
0.00181062
0.00181324
0.00181585
0.00181848
0.0018211
0.00182373
0.00182636
0.00182899
0.00183162
0.00183425
0.00183689
0.00183953
0.00184216
0.00184481
0.00184745
0.0018501
0.00185274
0.00185539
0.00185804
0.00186069
0.00186335
0.00186601
0.00186866
0.00187132
0.00187398
0.00187665
0.00187932
0.00188198
0.00188465
0.00188732
0.00189
0.00189267
0.00189535
0.00189803
0.00190071
0.00190339
0.00190608
0.00190876
0.00191145
0.00191414
0.00191683
0.00191953
0.00192222
0.00192492
0.00192761
0.00193032
0.00193302
0.00193573
0.00193843
0.00194114
0.00194385
0.00194657
0.00194928
0.001952
0.00195472
0.00195744
0.00196016
0.00196289
0.00196561
0.00196834
0.00197107
0.00197381
0.00197654
0.00197927
0.00198201
0.00198475
0.00198749
0.00199024
0.00199298
0.00199573
0.00199848
0.00200123
0.00200398
0.00200673
0.00200949
0.00201225
0.00201501
0.00201777
0.00202053
0.0020233
0.00202607
0.00202884
0.00203161
0.00203438
0.00203716
0.00203994
0.00204272
0.0020455
0.00204828
0.00205106
0.00205385
0.00205664
0.00205943
0.00206222
0.00206501
0.00206781
0.00207061
0.00207341
0.00207621
0.00207901
0.00208182
0.00208463
0.00208744
0.00209025
0.00209306
0.00209588
0.0020987
0.00210152
0.00210434
0.00210716
0.00210999
0.00211281
0.00211564
0.00211847
0.0021213
0.00212414
0.00212697
0.00212981
0.00213265
0.00213549
0.00213834
0.00214118
0.00214403
0.00214688
0.00214973
0.00215258
0.00215544
0.0021583
0.00216115
0.00216401
0.00216688
0.00216974
0.00217261
0.00217548
0.00217834
0.00218121
0.00218409
0.00218697
0.00218984
0.00219272
0.0021956
0.00219848
0.00220137
0.00220426
0.00220714
0.00221003
0.00221293
0.00221582
0.00221872
0.00222162
0.00222452
0.00222742
0.00223032
0.00223323
0.00223614
0.00223905
0.00224196
0.00224487
0.00224779
0.00225071
0.00225363
0.00225655
0.00225947
0.0022624
0.00226533
0.00226825
0.00227118
0.00227411
0.00227705
0.00227999
0.00228292
0.00228586
0.00228881
0.00229175
0.0022947
0.00229764
0.00230059
0.00230354
0.0023065
0.00230945
0.00231241
0.00231537
0.00231833
0.00232129
0.00232426
0.00232722
0.00233019
0.00233316
0.00233613
0.00233911
0.00234208
0.00234506
0.00234804
0.00235102
0.002354
0.00235699
0.00235997
0.00236296
0.00236595
0.00236895
0.00237194
0.00237494
0.00237794
0.00238094
0.00238394
0.00238695
0.00238995
0.00239296
0.00239597
0.00239898
0.002402
0.00240501
0.00240803
0.00241105
0.00241407
0.0024171
0.00242012
0.00242315
0.00242617
0.00242921
0.00243224
0.00243527
0.00243831
0.00244135
0.00244439
0.00244743
0.00245047
0.00245352
0.00245657
0.00245962
0.00246267
0.00246572
0.00246878
0.00247183
0.0024749
0.00247796
0.00248102
0.00248408
0.00248715
0.00249022
0.00249329
0.00249636
0.00249943
0.00250251
0.00250559
0.00250867
0.00251175
0.00251483
0.00251792
0.00252101
0.0025241
0.00252719
0.00253028
0.00253338
0.00253647
0.00253958
0.00254268
0.00254578
0.00254888
0.00255199
0.0025551
0.00255821
0.00256132
0.00256444
0.00256755
0.00257067
0.00257379
0.00257691
0.00258003
0.00258316
0.00258629
0.00258942
0.00259255
0.00259568
0.00259881
0.00260195
0.00260509
0.00260823
0.00261137
0.00261451
0.00261766
0.00262081
0.00262396
0.00262711
0.00263026
0.00263342
0.00263658
0.00263973
0.0026429
0.00264606
0.00264923
0.00265239
0.00265556
0.00265873
0.0026619
0.00266508
0.00266826
0.00267144
0.00267461
0.0026778
0.00268098
0.00268417
0.00268736
0.00269054
0.00269374
0.00269693
0.00270013
0.00270333
0.00270652
0.00270972
0.00271293
0.00271613
0.00271934
0.00272255
0.00272576
0.00272897
0.00273219
0.0027354
0.00273862
0.00274184
0.00274506
0.00274829
0.00275151
0.00275474
0.00275797
0.0027612
0.00276443
0.00276767
0.0027709
0.00277414
0.00277738
0.00278063
0.00278387
0.00278711
0.00279036
0.00279361
0.00279687
0.00280012
0.00280337
0.00280663
0.00280989
0.00281315
0.00281642
0.00281968
0.00282295
0.00282622
0.00282949
0.00283277
0.00283604
0.00283932
0.0028426
0.00284588
0.00284916
0.00285245
0.00285573
0.00285902
0.00286231
0.0028656
0.0028689
0.00287219
0.00287549
0.00287879
0.00288209
0.00288539
0.0028887
0.002892
0.00289531
0.00289863
0.00290194
0.00290525
0.00290857
0.00291188
0.00291521
0.00291853
0.00292185
0.00292518
0.0029285
0.00293184
0.00293517
0.0029385
0.00294183
0.00294517
0.00294851
0.00295185
0.00295519
0.00295854
0.00296188
0.00296523
0.00296858
0.00297193
0.00297529
0.00297864
0.002982
0.00298536
0.00298873
0.00299209
0.00299546
0.00299882
0.00300219
0.00300557
0.00300894
0.00301231
0.00301569
0.00301907
0.00302245
0.00302583
0.00302922
0.0030326
0.003036
0.00303939
0.00304277
0.00304617
0.00304956
0.00305297
0.00305637
0.00305976
0.00306317
0.00306657
0.00306998
0.00307339
0.0030768
0.00308021
0.00308363
0.00308705
0.00309047
0.00309388
0.00309731
0.00310073
0.00310416
0.00310759
0.00311101
0.00311445
0.00311788
0.00312132
0.00312475
0.00312819
0.00313163
0.00313507
0.00313852
0.00314197
0.00314542
0.00314887
0.00315232
0.00315577
0.00315923
0.00316269
0.00316615
0.00316961
0.00317308
0.00317655
0.00318001
0.00318348
0.00318695
0.00319043
0.00319391
0.00319738
0.00320086
0.00320434
0.00320782
0.00321131
0.0032148
0.00321828
0.00322178
0.00322527
0.00322876
0.00323226
0.00323575
0.00323926
0.00324276
0.00324626
0.00324977
0.00325327
0.00325678
0.00326029
0.00326381
0.00326732
0.00327084
0.00327436
0.00327788
0.0032814
0.00328493
0.00328845
0.00329198
0.00329551
0.00329904
0.00330258
0.00330611
0.00330965
0.00331319
0.00331673
0.00332027
0.00332382
0.00332736
0.00333092
0.00333447
0.00333802
0.00334158
0.00334513
0.00334869
0.00335225
0.00335582
0.00335938
0.00336294
0.00336651
0.00337008
0.00337366
0.00337723
0.0033808
0.00338438
0.00338796
0.00339155
0.00339513
0.00339871
0.0034023
0.00340589
0.00340948
0.00341307
0.00341666
0.00342026
0.00342386
0.00342746
0.00343106
0.00343466
0.00343827
0.00344188
0.00344549
0.0034491
0.00345271
0.00345633
0.00345994
0.00346357
0.00346719
0.00347081
0.00347443
0.00347806
0.00348169
0.00348532
0.00348895
0.00349258
0.00349622
0.00349986
0.0035035
0.00350714
0.00351079
0.00351443
0.00351808
0.00352173
0.00352538
0.00352903
0.00353269
0.00353635
0.00354001
0.00354367
0.00354733
0.003551
0.00355466
0.00355833
0.003562
0.00356567
0.00356935
0.00357302
0.0035767
0.00358038
0.00358406
0.00358775
0.00359143
0.00359512
0.00359881
0.0036025
0.00360619
0.00360988
0.00361358
0.00361728
0.00362098
0.00362468
0.00362839
0.00363209
0.0036358
0.00363951
0.00364322
0.00364693
0.00365065
0.00365437
0.00365809
0.00366181
0.00366553
0.00366925
0.00367298
0.00367671
0.00368044
0.00368418
0.00368791
0.00369165
0.00369539
0.00369913
0.00370287
0.00370661
0.00371036
0.00371411
0.00371786
0.00372161
0.00372536
0.00372912
0.00373288
0.00373663
0.0037404
0.00374416
0.00374793
0.00375169
0.00375546
0.00375923
0.003763
0.00376678
0.00377055
0.00377433
0.00377811
0.00378189
0.00378568
0.00378946
0.00379325
0.00379704
0.00380083
0.00380462
0.00380842
0.00381221
0.00381601
0.00381981
0.00382362
0.00382742
0.00383122
0.00383503
0.00383884
0.00384266
0.00384647
0.00385029
0.0038541
0.00385793
0.00386175
0.00386557
0.0038694
0.00387322
0.00387705
0.00388088
0.00388472
0.00388856
0.00389239
0.00389623
0.00390007
0.00390391
0.00390776
0.0039116
0.00391545
0.0039193
0.00392315
0.00392701
0.00393086
0.00393472
0.00393858
0.00394244
0.00394631
0.00395017
0.00395404
0.0039579
0.00396178
0.00396565
0.00396952
0.0039734
0.00397728
0.00398116
0.00398504
0.00398892
0.00399281
0.00399669
0.00400059
0.00400448
0.00400837
0.00401226
0.00401616
0.00402006
0.00402396
0.00402786
0.00403177
0.00403567
0.00403958
0.0040435
0.00404741
0.00405132
0.00405524
0.00405916
0.00406308
0.004067
0.00407092
0.00407485
0.00407878
0.00408271
0.00408664
0.00409057
0.00409451
0.00409844
0.00410238
0.00410633
0.00411027
0.00411421
0.00411816
0.00412211
0.00412606
0.00413001
0.00413396
0.00413792
0.00414188
0.00414584
0.0041498
0.00415376
0.00415772
0.00416169
0.00416566
0.00416963
0.00417361
0.00417758
0.00418156
0.00418554
0.00418951
0.0041935
0.00419748
0.00420147
0.00420546
0.00420944
0.00421343
0.00421743
0.00422142
0.00422542
0.00422943
0.00423342
0.00423743
0.00424143
0.00424544
0.00424945
0.00425346
0.00425747
0.00426149
0.00426551
0.00426953
0.00427354
0.00427757
0.00428159
0.00428562
0.00428965
0.00429367
0.00429771
0.00430174
0.00430578
0.00430982
0.00431385
0.00431789
0.00432194
0.00432598
0.00433003
0.00433408
0.00433813
0.00434218
0.00434624
0.00435029
0.00435435
0.00435841
0.00436247
0.00436653
0.0043706
0.00437466
0.00437873
0.0043828
0.00438688
0.00439096
0.00439503
0.00439911
0.00440319
0.00440727
0.00441136
0.00441544
0.00441953
0.00442362
0.00442771
0.00443181
0.00443591
0.00444
0.0044441
0.0044482
0.00445231
0.00445641
0.00446052
0.00446463
0.00446874
0.00447286
0.00447697
0.00448108
0.0044852
0.00448932
0.00449345
0.00449757
0.0045017
0.00450583
0.00450996
0.00451409
0.00451822
0.00452236
0.0045265
0.00453063
0.00453478
0.00453892
0.00454306
0.00454721
0.00455136
0.00455551
0.00455966
0.00456382
0.00456797
0.00457213
0.00457629
0.00458046
0.00458462
0.00458878
0.00459295
0.00459712
0.00460129
0.00460546
0.00460964
0.00461382
0.004618
0.00462218
0.00462636
0.00463054
0.00463473
0.00463892
0.00464311
0.00464731
0.0046515
0.0046557
0.00465989
0.0046641
0.0046683
0.0046725
0.00467671
0.00468091
0.00468513
0.00468934
0.00469355
0.00469776
0.00470198
0.0047062
0.00471042
0.00471464
0.00471887
0.00472309
0.00472733
0.00473156
0.00473578
0.00474002
0.00474425
0.0047485
0.00475273
0.00475697
0.00476122
0.00476546
0.00476971
0.00477396
0.00477821
0.00478246
0.00478672
0.00479097
0.00479523
0.00479949
0.00480375
0.00480802
0.00481229
0.00481655
0.00482082
0.00482509
0.00482936
0.00483364
0.00483792
0.0048422
0.00484648
0.00485077
0.00485505
0.00485934
0.00486363
0.00486792
0.00487221
0.0048765
0.0048808
0.0048851
0.0048894
0.0048937
0.00489801
0.00490232
0.00490662
0.00491093
0.00491524
0.00491956
0.00492387
0.00492819
0.00493251
0.00493683
0.00494115
0.00494548
0.00494981
0.00495413
0.00495846
0.00496279
0.00496713
0.00497147
0.0049758
0.00498014
0.00498448
0.00498883
0.00499318
0.00499752
0.00500187
0.00500622
0.00501058
0.00501493
0.00501928
0.00502364
0.005028
0.00503237
0.00503673
0.0050411
0.00504547
0.00504984
0.00505421
0.00505859
0.00506296
0.00506734
0.00507172
0.0050761
0.00508049
0.00508487
0.00508926
0.00509365
0.00509804
0.00510243
0.00510683
0.00511122
0.00511562
0.00512002
0.00512443
0.00512883
0.00513324
0.00513764
0.00514205
0.00514647
0.00515088
0.00515529
0.00515971
0.00516413
0.00516856
0.00517298
0.0051774
0.00518183
0.00518626
0.00519069
0.00519512
0.00519955
0.00520399
0.00520843
0.00521287
0.00521731
0.00522175
0.0052262
0.00523065
0.0052351
0.00523955
0.005244
0.00524845
0.00525291
0.00525737
0.00526184
0.0052663
0.00527076
0.00527523
0.0052797
0.00528417
0.00528864
0.00529312
0.00529759
0.00530207
0.00530655
0.00531104
0.00531552
0.00532
0.00532449
0.00532898
0.00533347
0.00533796
0.00534246
0.00534696
0.00535146
0.00535596
0.00536046
0.00536496
0.00536947
0.00537398
0.00537849
0.005383
0.00538752
0.00539203
0.00539655
0.00540107
0.00540559
0.00541011
0.00541464
0.00541917
0.0054237
0.00542822
0.00543276
0.00543729
0.00544183
0.00544637
0.00545091
0.00545545
0.00545999
0.00546454
0.00546909
0.00547364
0.00547819
0.00548275
0.0054873
0.00549186
0.00549642
0.00550098
0.00550554
0.00551011
0.00551468
0.00551925
0.00552382
0.00552839
0.00553296
0.00553754
0.00554212
0.0055467
0.00555128
0.00555586
0.00556045
0.00556504
0.00556963
0.00557422
0.00557881
0.00558341
0.00558801
0.00559261
0.00559721
0.00560181
0.00560642
0.00561102
0.00561563
0.00562024
0.00562485
0.00562947
0.00563408
0.0056387
0.00564332
0.00564794
0.00565257
0.00565719
0.00566182
0.00566645
0.00567108
0.00567571
0.00568035
0.00568498
0.00568962
0.00569426
0.0056989
0.00570355
0.0057082
0.00571284
0.0057175
0.00572215
0.0057268
0.00573146
0.00573612
0.00574078
0.00574544
0.0057501
0.00575477
0.00575943
0.0057641
0.00576877
0.00577345
0.00577813
0.0057828
0.00578748
0.00579216
0.00579684
0.00580153
0.00580621
0.0058109
0.00581559
0.00582028
0.00582498
0.00582967
0.00583437
0.00583907
0.00584377
0.00584847
0.00585318
0.00585788
0.00586259
0.0058673
0.00587202
0.00587673
0.00588145
0.00588616
0.00589089
0.00589561
0.00590033
0.00590505
0.00590978
0.00591451
0.00591925
0.00592398
0.00592871
0.00593345
0.00593819
0.00594294
0.00594768
0.00595242
0.00595717
0.00596192
0.00596667
0.00597142
0.00597617
0.00598093
0.00598569
0.00599045
0.00599521
0.00599998
0.00600474
0.00600951
0.00601428
0.00601905
0.00602382
0.0060286
0.00603337
0.00603816
0.00604294
0.00604772
0.0060525
0.00605729
0.00606208
0.00606687
0.00607166
0.00607645
0.00608125
0.00608605
0.00609085
0.00609565
0.00610045
0.00610525
0.00611006
0.00611487
0.00611968
0.00612449
0.00612931
0.00613413
0.00613895
0.00614377
0.00614859
0.00615341
0.00615824
0.00616307
0.0061679
0.00617273
0.00617757
0.0061824
0.00618724
0.00619208
0.00619692
0.00620177
0.00620661
0.00621146
0.00621631
0.00622116
0.00622601
0.00623086
0.00623572
0.00624058
0.00624544
0.0062503
0.00625517
0.00626003
0.0062649
0.00626977
0.00627464