/*--------------------------------*- C++ -*----------------------------------*\
| =========                 |                                                 |
| \\      /  F ield         | OpenFOAM: The Open Source CFD Toolbox           |
|  \\    /   O peration     | Version:  2206                                  |
|   \\  /    A nd           | Website:  www.openfoam.com                      |
|    \\/     M anipulation  |                                                 |
\*---------------------------------------------------------------------------*/
FoamFile
{
    version     2.0;
    format      ascii;
    arch        "LSB;label=32;scalar=64";
    class       volScalarField;
    location    "440";
    object      p;
}
// * * * * * * * * * * * * * * * * * * * * * * * * * * * * * * * * * * * * * //

dimensions      [0 2 -2 0 0 0 0];

internalField   nonuniform List<scalar> 
100000
(
-1.53723e-09
3.3346e-09
3.79955e-09
5.97324e-09
1.10875e-08
2.09159e-08
2.64008e-08
4.04461e-08
5.22105e-08
7.17545e-08
8.93036e-08
1.06506e-07
1.28936e-07
1.51986e-07
1.79984e-07
2.08205e-07
2.3397e-07
2.67076e-07
2.9848e-07
3.37309e-07
3.73557e-07
4.10444e-07
4.51165e-07
4.94192e-07
5.40021e-07
5.89185e-07
6.3958e-07
6.86829e-07
7.41746e-07
7.9496e-07
8.55226e-07
9.13628e-07
9.71445e-07
1.03482e-06
1.09822e-06
1.16724e-06
1.23556e-06
1.30234e-06
1.37547e-06
1.44796e-06
1.52663e-06
1.60412e-06
1.68047e-06
1.76284e-06
1.84484e-06
1.93278e-06
2.01975e-06
2.1054e-06
2.19722e-06
2.28853e-06
2.38592e-06
2.48219e-06
2.5773e-06
2.67842e-06
2.77918e-06
2.88587e-06
2.99161e-06
3.09598e-06
3.20661e-06
3.31659e-06
3.43283e-06
3.54772e-06
3.66172e-06
3.78142e-06
3.90114e-06
4.02632e-06
4.15109e-06
4.27385e-06
4.40366e-06
4.53185e-06
4.66747e-06
4.80033e-06
4.934e-06
5.07133e-06
5.21111e-06
5.35352e-06
5.49941e-06
5.64633e-06
5.79027e-06
5.94177e-06
6.09159e-06
6.24847e-06
6.40341e-06
6.55784e-06
6.71778e-06
6.87774e-06
7.04334e-06
7.20817e-06
7.37153e-06
7.5412e-06
7.71023e-06
7.88544e-06
8.05944e-06
8.23232e-06
8.41123e-06
8.58972e-06
8.77423e-06
8.95764e-06
9.13986e-06
9.32814e-06
9.51601e-06
9.70985e-06
9.90267e-06
1.00942e-05
1.02919e-05
1.0489e-05
1.06924e-05
1.08944e-05
1.10955e-05
1.13023e-05
1.15091e-05
1.17214e-05
1.19333e-05
1.21432e-05
1.23601e-05
1.25754e-05
1.27981e-05
1.30181e-05
1.32389e-05
1.34633e-05
1.36902e-05
1.39197e-05
1.41527e-05
1.43867e-05
1.46177e-05
1.48563e-05
1.50932e-05
1.53372e-05
1.55792e-05
1.58208e-05
1.60678e-05
1.63148e-05
1.65675e-05
1.68194e-05
1.70699e-05
1.73267e-05
1.75828e-05
1.78451e-05
1.81061e-05
1.83661e-05
1.86321e-05
1.88977e-05
1.91693e-05
1.94398e-05
1.97091e-05
1.99845e-05
2.02594e-05
2.05404e-05
2.08202e-05
2.10989e-05
2.13836e-05
2.16679e-05
2.19582e-05
2.22475e-05
2.25354e-05
2.28296e-05
2.31231e-05
2.3423e-05
2.37214e-05
2.4019e-05
2.43222e-05
2.46255e-05
2.49342e-05
2.52425e-05
2.55488e-05
2.58622e-05
2.61739e-05
2.64931e-05
2.68095e-05
2.71267e-05
2.74475e-05
2.77709e-05
2.80968e-05
2.84263e-05
2.87567e-05
2.90842e-05
2.94192e-05
2.97526e-05
3.0093e-05
3.04314e-05
3.07694e-05
3.11128e-05
3.14563e-05
3.18055e-05
3.21538e-05
3.25007e-05
3.28539e-05
3.32064e-05
3.35652e-05
3.39227e-05
3.42791e-05
3.46415e-05
3.50035e-05
3.53715e-05
3.57385e-05
3.61042e-05
3.6476e-05
3.68474e-05
3.72247e-05
3.76011e-05
3.79761e-05
3.83573e-05
3.8738e-05
3.91248e-05
3.95103e-05
3.9895e-05
4.02853e-05
4.06756e-05
4.10714e-05
4.14668e-05
4.18602e-05
4.22606e-05
4.26594e-05
4.30657e-05
4.34691e-05
4.38734e-05
4.42813e-05
4.46917e-05
4.51047e-05
4.55212e-05
4.59387e-05
4.63533e-05
4.67754e-05
4.71958e-05
4.76233e-05
4.80488e-05
4.84738e-05
4.89043e-05
4.93349e-05
4.97711e-05
5.02065e-05
5.06404e-05
5.10807e-05
5.15203e-05
5.19661e-05
5.24107e-05
5.28542e-05
5.33036e-05
5.37527e-05
5.42078e-05
5.46618e-05
5.51146e-05
5.55735e-05
5.60319e-05
5.64964e-05
5.69597e-05
5.74219e-05
5.789e-05
5.83579e-05
5.88316e-05
5.93044e-05
5.97759e-05
6.02535e-05
6.07306e-05
6.12139e-05
6.16958e-05
6.21769e-05
6.26636e-05
6.31504e-05
6.36426e-05
6.41344e-05
6.46242e-05
6.5121e-05
6.56162e-05
6.61189e-05
6.66188e-05
6.71195e-05
6.76238e-05
6.81307e-05
6.86401e-05
6.9153e-05
6.96669e-05
7.01779e-05
7.06964e-05
7.12133e-05
7.17372e-05
7.22591e-05
7.27806e-05
7.33075e-05
7.38345e-05
7.43671e-05
7.48989e-05
7.54293e-05
7.5966e-05
7.6502e-05
7.70443e-05
7.75852e-05
7.81252e-05
7.86711e-05
7.92166e-05
7.97681e-05
8.03185e-05
8.08677e-05
8.1423e-05
8.19778e-05
8.25387e-05
8.30985e-05
8.3657e-05
8.42218e-05
8.47859e-05
8.53562e-05
8.59252e-05
8.64933e-05
8.70671e-05
8.76409e-05
8.82202e-05
8.87991e-05
8.93759e-05
8.99599e-05
9.05421e-05
9.11319e-05
9.17188e-05
9.23066e-05
9.2898e-05
9.34919e-05
9.40883e-05
9.46883e-05
9.52893e-05
9.58874e-05
9.64929e-05
9.70968e-05
9.77078e-05
9.83168e-05
9.89253e-05
9.95393e-05
0.000100153
0.000100773
0.000101392
0.000102009
0.000102633
0.000103256
0.000103885
0.000104514
0.00010514
0.000105773
0.000106406
0.000107045
0.000107682
0.000108318
0.000108961
0.000109603
0.000110251
0.000110897
0.000111543
0.000112195
0.000112846
0.000113503
0.000114159
0.000114814
0.000115476
0.000116136
0.000116803
0.000117468
0.000118133
0.000118803
0.000119473
0.000120149
0.000120824
0.000121498
0.000122178
0.000122857
0.000123543
0.000124226
0.00012491
0.000125598
0.000126288
0.000126981
0.000127678
0.000128375
0.00012907
0.000129772
0.000130472
0.000131179
0.000131885
0.00013259
0.0001333
0.00013401
0.000134727
0.000135442
0.000136156
0.000136876
0.000137595
0.000138321
0.000139046
0.000139769
0.000140498
0.000141227
0.000141962
0.000142696
0.000143429
0.000144168
0.000144906
0.00014565
0.000146394
0.000147136
0.000147884
0.000148631
0.000149385
0.000150138
0.000150889
0.000151647
0.000152404
0.000153167
0.000153929
0.000154689
0.000155457
0.000156222
0.000156996
0.000157766
0.000158537
0.000159312
0.00016009
0.00016087
0.000161653
0.000162437
0.000163219
0.000164008
0.000164795
0.00016559
0.000166382
0.000167174
0.000167972
0.000168769
0.000169572
0.000170375
0.000171176
0.000171983
0.00017279
0.000173602
0.000174414
0.000175224
0.000176041
0.000176857
0.000177679
0.0001785
0.000179319
0.000180145
0.000180971
0.000181802
0.000182632
0.000183462
0.000184297
0.000185132
0.000185972
0.000186812
0.00018765
0.000188495
0.000189339
0.000190189
0.000191038
0.000191886
0.00019274
0.000193594
0.000194453
0.000195312
0.000196168
0.000197032
0.000197894
0.000198764
0.000199631
0.000200498
0.00020137
0.000202243
0.00020312
0.000204
0.000204881
0.000205759
0.000206644
0.000207528
0.000208419
0.000209308
0.000210196
0.00021109
0.000211984
0.000212883
0.000213782
0.000214679
0.000215583
0.000216486
0.000217395
0.000218303
0.00021921
0.000220123
0.000221035
0.000221954
0.000222871
0.000223787
0.00022471
0.000225631
0.000226559
0.000227486
0.000228411
0.000229343
0.000230274
0.000231212
0.000232147
0.000233083
0.000234023
0.000234964
0.00023591
0.000236856
0.0002378
0.000238751
0.0002397
0.000240657
0.000241611
0.000242565
0.000243524
0.000244485
0.000245448
0.000246415
0.000247383
0.000248348
0.00024932
0.000250291
0.000251269
0.000252245
0.000253221
0.000254202
0.000255182
0.000256169
0.000257155
0.000258139
0.00025913
0.00026012
0.000261116
0.000262111
0.000263105
0.000264105
0.000265105
0.00026611
0.000267115
0.000268118
0.000269127
0.000270136
0.000271151
0.000272165
0.000273177
0.000274196
0.000275214
0.000276238
0.000277262
0.000278283
0.000279312
0.000280339
0.000281373
0.000282405
0.000283437
0.000284474
0.000285511
0.000286554
0.000287596
0.000288636
0.000289683
0.000290729
0.000291782
0.000292832
0.000293884
0.000294938
0.000295996
0.000297055
0.000298119
0.000299183
0.000300245
0.000301313
0.000302381
0.000303455
0.000304527
0.000305599
0.000306677
0.000307754
0.000308837
0.000309919
0.000311
0.000312087
0.000313174
0.000314266
0.000315358
0.000316448
0.000317545
0.00031864
0.000319742
0.000320843
0.000321943
0.000323049
0.000324154
0.000325265
0.000326375
0.000327484
0.0003286
0.000329714
0.000330835
0.000331954
0.000333073
0.000334197
0.000335321
0.000336451
0.00033758
0.000338708
0.000339842
0.000340975
0.000342115
0.000343252
0.00034439
0.000345532
0.000346677
0.000347823
0.000348974
0.000350125
0.000351274
0.00035243
0.000353584
0.000354745
0.000355905
0.000357064
0.000358228
0.000359393
0.000360563
0.000361732
0.0003629
0.000364074
0.000365248
0.000366427
0.000367606
0.000368783
0.000369967
0.00037115
0.000372339
0.000373526
0.000374713
0.000375906
0.000377098
0.000378297
0.000379494
0.00038069
0.000381892
0.000383094
0.000384301
0.000385508
0.000386714
0.000387925
0.000389136
0.000390353
0.000391569
0.000392784
0.000394005
0.000395225
0.000396451
0.000397677
0.000398901
0.000400132
0.000401361
0.000402597
0.000403831
0.000405066
0.000406304
0.000407545
0.000408788
0.000410035
0.000411283
0.000412528
0.00041378
0.000415031
0.000416289
0.000417544
0.0004188
0.000420061
0.000421321
0.000422588
0.000423854
0.000425118
0.000426389
0.000427659
0.000428935
0.00043021
0.000431483
0.000432763
0.000434043
0.000435328
0.000436612
0.000437895
0.000439185
0.000440473
0.000441768
0.000443062
0.000444354
0.000445653
0.000446951
0.000448255
0.000449558
0.00045086
0.000452168
0.000453475
0.000454789
0.000456101
0.000457412
0.00045873
0.000460046
0.00046137
0.000462691
0.000464012
0.000465338
0.000466665
0.000467996
0.00046933
0.000470665
0.000471996
0.000473336
0.000474674
0.000476019
0.000477361
0.000478704
0.000480052
0.0004814
0.000482753
0.000484106
0.000485457
0.000486815
0.000488172
0.000489535
0.000490897
0.000492258
0.000493625
0.000494991
0.000496364
0.000497735
0.000499105
0.000500482
0.000501857
0.000503239
0.00050462
0.000506
0.000507385
0.00050877
0.000510162
0.000511552
0.00051294
0.000514336
0.00051573
0.000517131
0.00051853
0.000519928
0.000521332
0.000522737
0.000524146
0.000525555
0.000526963
0.000528377
0.000529789
0.000531209
0.000532627
0.000534045
0.000535466
0.000536891
0.000538317
0.000539748
0.000541179
0.000542607
0.000544043
0.000545478
0.000546919
0.000548358
0.000549797
0.000551241
0.000552686
0.000554136
0.000555585
0.000557033
0.000558487
0.00055994
0.0005614
0.000562858
0.000564315
0.000565779
0.000567241
0.00056871
0.000570178
0.000571645
0.000573117
0.00057459
0.000576068
0.000577545
0.000579021
0.000580503
0.000581985
0.000583472
0.000584959
0.000586444
0.000587935
0.000589426
0.000590923
0.000592419
0.000593914
0.000595415
0.000596915
0.000598422
0.000599926
0.000601431
0.00060294
0.000604451
0.000605965
0.000607482
0.000609001
0.000610516
0.000612039
0.00061356
0.000615089
0.000616615
0.000618141
0.000619672
0.000621204
0.000622741
0.000624277
0.000625812
0.000627353
0.000628893
0.00063044
0.000631985
0.00063353
0.00063508
0.00063663
0.000638186
0.000639741
0.000641294
0.000642854
0.000644413
0.000645979
0.000647543
0.000649106
0.000650675
0.000652244
0.000653818
0.000655392
0.000656964
0.000658543
0.000660121
0.000661705
0.000663288
0.00066487
0.000666457
0.000668045
0.000669638
0.00067123
0.000672821
0.000674419
0.000676015
0.000677618
0.000679219
0.000680821
0.000682426
0.000684034
0.000685644
0.000687258
0.000688872
0.000690484
0.000692104
0.000693721
0.000695346
0.000696969
0.000698591
0.000700219
0.000701847
0.00070348
0.000705113
0.000706744
0.000708382
0.000710018
0.000711662
0.000713303
0.000714944
0.000716591
0.000718237
0.00071989
0.000721541
0.000723191
0.000724847
0.000726503
0.000728164
0.000729825
0.000731484
0.00073315
0.000734815
0.000736486
0.000738156
0.000739825
0.0007415
0.000743174
0.000744854
0.000746534
0.000748212
0.000749897
0.00075158
0.00075327
0.000754958
0.000756647
0.000758339
0.000760034
0.000761731
0.000763432
0.000765134
0.000766833
0.000768539
0.000770244
0.000771956
0.000773665
0.000775375
0.00077709
0.000778804
0.000780525
0.000782245
0.000783963
0.000785688
0.000787412
0.000789142
0.000790871
0.000792598
0.000794332
0.000796066
0.000797805
0.000799543
0.00080128
0.000803024
0.000804766
0.000806515
0.000808263
0.000810009
0.000811762
0.000813514
0.000815272
0.000817029
0.000818785
0.000820547
0.000822308
0.000824076
0.000825842
0.000827608
0.000829379
0.00083115
0.000832926
0.000834702
0.000836476
0.000838258
0.000840037
0.000841824
0.000843608
0.000845393
0.000847182
0.000848973
0.000850767
0.000852564
0.000854362
0.000856158
0.000857961
0.000859762
0.00086157
0.000863376
0.000865182
0.000866993
0.000868805
0.000870621
0.000872438
0.000874252
0.000876073
0.000877894
0.00087972
0.000881546
0.00088337
0.0008852
0.00088703
0.000888866
0.0008907
0.000892534
0.000894373
0.000896213
0.000898058
0.000899902
0.000901745
0.000903594
0.000905442
0.000907297
0.00090915
0.000911003
0.000912861
0.000914719
0.000916583
0.000918446
0.000920307
0.000922175
0.000924042
0.000925916
0.000927787
0.000929659
0.000931535
0.000933413
0.000935294
0.000937178
0.000939063
0.000940946
0.000942836
0.000944724
0.000946619
0.000948512
0.000950405
0.000952304
0.000954202
0.000956106
0.000958009
0.000959911
0.000961819
0.000963726
0.00096564
0.000967552
0.000969464
0.000971381
0.000973298
0.000975221
0.000977142
0.000979063
0.00098099
0.000982916
0.000984848
0.000986779
0.000988709
0.000990645
0.000992581
0.000994523
0.000996463
0.000998402
0.00100035
0.00100229
0.00100424
0.00100619
0.00100814
0.0010101
0.00101205
0.00101401
0.00101597
0.00101793
0.00101989
0.00102186
0.00102383
0.00102579
0.00102776
0.00102973
0.00103171
0.00103369
0.00103567
0.00103765
0.00103963
0.00104161
0.0010436
0.00104559
0.00104758
0.00104957
0.00105156
0.00105356
0.00105556
0.00105756
0.00105956
0.00106156
0.00106357
0.00106558
0.00106758
0.00106959
0.00107161
0.00107362
0.00107564
0.00107766
0.00107967
0.0010817
0.00108372
0.00108575
0.00108778
0.0010898
0.00109183
0.00109387
0.0010959
0.00109794
0.00109998
0.00110202
0.00110406
0.00110611
0.00110815
0.0011102
0.00111225
0.0011143
0.00111636
0.00111841
0.00112047
0.00112253
0.00112459
0.00112665
0.00112872
0.00113079
0.00113286
0.00113493
0.001137
0.00113908
0.00114116
0.00114323
0.00114531
0.0011474
0.00114948
0.00115157
0.00115366
0.00115575
0.00115784
0.00115994
0.00116203
0.00116413
0.00116623
0.00116833
0.00117043
0.00117254
0.00117464
0.00117675
0.00117886
0.00118098
0.00118309
0.00118521
0.00118733
0.00118944
0.00119157
0.00119369
0.00119582
0.00119795
0.00120007
0.00120221
0.00120434
0.00120647
0.00120861
0.00121075
0.00121289
0.00121504
0.00121718
0.00121933
0.00122147
0.00122363
0.00122578
0.00122793
0.00123008
0.00123224
0.0012344
0.00123657
0.00123873
0.0012409
0.00124306
0.00124523
0.00124741
0.00124958
0.00125175
0.00125393
0.00125611
0.00125829
0.00126048
0.00126266
0.00126485
0.00126703
0.00126923
0.00127142
0.00127361
0.00127581
0.00127801
0.00128021
0.00128241
0.00128461
0.00128682
0.00128902
0.00129123
0.00129345
0.00129566
0.00129787
0.00130009
0.00130231
0.00130453
0.00130675
0.00130897
0.0013112
0.00131343
0.00131566
0.00131789
0.00132012
0.00132236
0.0013246
0.00132684
0.00132907
0.00133132
0.00133356
0.00133581
0.00133806
0.00134031
0.00134256
0.00134482
0.00134707
0.00134934
0.0013516
0.00135386
0.00135612
0.00135839
0.00136066
0.00136293
0.0013652
0.00136747
0.00136975
0.00137203
0.00137431
0.00137658
0.00137887
0.00138115
0.00138344
0.00138573
0.00138802
0.00139031
0.00139261
0.0013949
0.0013972
0.0013995
0.0014018
0.00140411
0.00140641
0.00140872
0.00141103
0.00141334
0.00141565
0.00141797
0.00142029
0.0014226
0.00142492
0.00142725
0.00142957
0.0014319
0.00143422
0.00143655
0.00143888
0.00144122
0.00144356
0.00144589
0.00144823
0.00145057
0.00145292
0.00145526
0.00145761
0.00145996
0.00146231
0.00146466
0.00146702
0.00146938
0.00147174
0.0014741
0.00147646
0.00147883
0.00148119
0.00148356
0.00148593
0.0014883
0.00149068
0.00149305
0.00149543
0.00149781
0.00150019
0.00150257
0.00150496
0.00150734
0.00150973
0.00151212
0.00151452
0.00151691
0.00151931
0.00152171
0.0015241
0.00152651
0.00152891
0.00153132
0.00153372
0.00153613
0.00153855
0.00154096
0.00154337
0.00154579
0.00154821
0.00155063
0.00155305
0.00155548
0.0015579
0.00156033
0.00156276
0.0015652
0.00156763
0.00157007
0.00157251
0.00157495
0.00157739
0.00157983
0.00158228
0.00158473
0.00158718
0.00158963
0.00159208
0.00159454
0.00159699
0.00159945
0.00160192
0.00160438
0.00160684
0.00160931
0.00161178
0.00161425
0.00161672
0.00161919
0.00162167
0.00162415
0.00162663
0.00162911
0.00163159
0.00163408
0.00163656
0.00163905
0.00164155
0.00164404
0.00164653
0.00164903
0.00165153
0.00165403
0.00165653
0.00165903
0.00166154
0.00166405
0.00166656
0.00166907
0.00167158
0.00167409
0.00167661
0.00167913
0.00168165
0.00168417
0.0016867
0.00168923
0.00169176
0.00169429
0.00169682
0.00169936
0.00170189
0.00170443
0.00170697
0.00170951
0.00171206
0.0017146
0.00171715
0.0017197
0.00172225
0.00172481
0.00172736
0.00172992
0.00173248
0.00173504
0.0017376
0.00174017
0.00174274
0.00174531
0.00174787
0.00175045
0.00175302
0.0017556
0.00175818
0.00176075
0.00176334
0.00176592
0.00176851
0.00177109
0.00177368
0.00177627
0.00177887
0.00178146
0.00178406
0.00178665
0.00178926
0.00179186
0.00179447
0.00179707
0.00179968
0.00180229
0.0018049
0.00180751
0.00181013
0.00181275
0.00181537
0.00181799
0.00182061
0.00182324
0.00182587
0.0018285
0.00183113
0.00183376
0.0018364
0.00183903
0.00184167
0.00184431
0.00184695
0.0018496
0.00185225
0.00185489
0.00185754
0.00186019
0.00186285
0.00186551
0.00186816
0.00187082
0.00187348
0.00187615
0.00187881
0.00188148
0.00188415
0.00188682
0.00188949
0.00189217
0.00189484
0.00189752
0.0019002
0.00190288
0.00190557
0.00190825
0.00191094
0.00191363
0.00191632
0.00191901
0.0019217
0.0019244
0.0019271
0.0019298
0.00193251
0.00193521
0.00193791
0.00194062
0.00194333
0.00194605
0.00194876
0.00195148
0.0019542
0.00195692
0.00195964
0.00196236
0.00196509
0.00196782
0.00197055
0.00197328
0.00197601
0.00197874
0.00198148
0.00198422
0.00198696
0.00198971
0.00199245
0.0019952
0.00199794
0.0020007
0.00200345
0.0020062
0.00200896
0.00201171
0.00201448
0.00201724
0.00202
0.00202276
0.00202553
0.0020283
0.00203107
0.00203384
0.00203662
0.00203939
0.00204217
0.00204495
0.00204773
0.00205052
0.0020533
0.00205609
0.00205888
0.00206167
0.00206447
0.00206726
0.00207006
0.00207286
0.00207566
0.00207846
0.00208127
0.00208408
0.00208689
0.0020897
0.00209251
0.00209533
0.00209814
0.00210096
0.00210378
0.0021066
0.00210943
0.00211225
0.00211508
0.00211791
0.00212074
0.00212358
0.00212641
0.00212925
0.00213209
0.00213493
0.00213777
0.00214062
0.00214346
0.00214631
0.00214916
0.00215201
0.00215487
0.00215773
0.00216058
0.00216344
0.0021663
0.00216917
0.00217203
0.0021749
0.00217777
0.00218064
0.00218351
0.00218639
0.00218927
0.00219214
0.00219502
0.0021979
0.00220079
0.00220368
0.00220656
0.00220945
0.00221234
0.00221524
0.00221814
0.00222103
0.00222393
0.00222683
0.00222974
0.00223265
0.00223555
0.00223846
0.00224137
0.00224428
0.0022472
0.00225012
0.00225303
0.00225596
0.00225888
0.0022618
0.00226473
0.00226766
0.00227059
0.00227352
0.00227645
0.00227939
0.00228232
0.00228526
0.0022882
0.00229115
0.00229409
0.00229704
0.00229999
0.00230294
0.00230589
0.00230885
0.0023118
0.00231476
0.00231772
0.00232068
0.00232365
0.00232661
0.00232958
0.00233255
0.00233552
0.00233849
0.00234146
0.00234444
0.00234742
0.0023504
0.00235339
0.00235637
0.00235935
0.00236234
0.00236533
0.00236833
0.00237132
0.00237432
0.00237732
0.00238031
0.00238332
0.00238632
0.00238933
0.00239233
0.00239534
0.00239836
0.00240137
0.00240438
0.0024074
0.00241042
0.00241344
0.00241646
0.00241949
0.00242251
0.00242554
0.00242857
0.00243161
0.00243464
0.00243767
0.00244071
0.00244375
0.00244679
0.00244983
0.00245288
0.00245593
0.00245898
0.00246203
0.00246508
0.00246813
0.00247119
0.00247425
0.00247731
0.00248037
0.00248343
0.0024865
0.00248957
0.00249264
0.00249571
0.00249878
0.00250186
0.00250493
0.00250801
0.0025111
0.00251418
0.00251726
0.00252035
0.00252344
0.00252653
0.00252962
0.00253272
0.00253581
0.00253891
0.00254202
0.00254511
0.00254822
0.00255132
0.00255444
0.00255754
0.00256065
0.00256377
0.00256688
0.00257
0.00257312
0.00257624
0.00257936
0.00258249
0.00258562
0.00258874
0.00259187
0.002595
0.00259814
0.00260128
0.00260441
0.00260755
0.00261069
0.00261384
0.00261698
0.00262013
0.00262328
0.00262643
0.00262958
0.00263274
0.00263589
0.00263905
0.00264221
0.00264537
0.00264854
0.0026517
0.00265487
0.00265804
0.00266121
0.00266439
0.00266756
0.00267074
0.00267392
0.0026771
0.00268028
0.00268347
0.00268666
0.00268985
0.00269304
0.00269623
0.00269943
0.00270262
0.00270582
0.00270902
0.00271222
0.00271543
0.00271864
0.00272184
0.00272505
0.00272826
0.00273148
0.00273469
0.00273791
0.00274113
0.00274435
0.00274758
0.0027508
0.00275402
0.00275725
0.00276048
0.00276372
0.00276695
0.00277018
0.00277342
0.00277666
0.00277991
0.00278315
0.00278639
0.00278964
0.00279289
0.00279614
0.0027994
0.00280265
0.0028059
0.00280916
0.00281243
0.00281569
0.00281896
0.00282222
0.00282549
0.00282876
0.00283203
0.00283531
0.00283858
0.00284186
0.00284514
0.00284843
0.00285171
0.00285499
0.00285828
0.00286157
0.00286486
0.00286816
0.00287145
0.00287475
0.00287804
0.00288135
0.00288465
0.00288795
0.00289126
0.00289457
0.00289788
0.00290119
0.0029045
0.00290782
0.00291113
0.00291446
0.00291778
0.0029211
0.00292442
0.00292775
0.00293108
0.00293441
0.00293774
0.00294108
0.00294441
0.00294775
0.00295109
0.00295443
0.00295778
0.00296112
0.00296447
0.00296782
0.00297117
0.00297452
0.00297788
0.00298123
0.0029846
0.00298796
0.00299132
0.00299469
0.00299805
0.00300142
0.00300479
0.00300816
0.00301154
0.00301491
0.0030183
0.00302168
0.00302505
0.00302844
0.00303182
0.00303522
0.0030386
0.00304199
0.00304539
0.00304878
0.00305218
0.00305558
0.00305898
0.00306238
0.00306579
0.00306919
0.0030726
0.00307601
0.00307942
0.00308284
0.00308625
0.00308967
0.00309309
0.00309651
0.00309993
0.00310336
0.00310679
0.00311021
0.00311365
0.00311708
0.00312052
0.00312395
0.00312739
0.00313083
0.00313427
0.00313771
0.00314116
0.00314461
0.00314806
0.00315151
0.00315497
0.00315842
0.00316188
0.00316534
0.0031688
0.00317226
0.00317573
0.0031792
0.00318267
0.00318614
0.00318961
0.00319309
0.00319656
0.00320004
0.00320352
0.003207
0.00321049
0.00321398
0.00321746
0.00322095
0.00322444
0.00322794
0.00323143
0.00323493
0.00323843
0.00324193
0.00324543
0.00324894
0.00325244
0.00325595
0.00325946
0.00326297
0.00326649
0.00327
0.00327352
0.00327704
0.00328056
0.00328409
0.00328761
0.00329114
0.00329467
0.0032982
0.00330173
0.00330526
0.0033088
0.00331234
0.00331588
0.00331943
0.00332297
0.00332651
0.00333007
0.00333361
0.00333717
0.00334072
0.00334428
0.00334784
0.0033514
0.00335496
0.00335852
0.00336209
0.00336565
0.00336922
0.0033728
0.00337637
0.00337994
0.00338352
0.0033871
0.00339068
0.00339426
0.00339784
0.00340143
0.00340502
0.00340861
0.0034122
0.00341579
0.00341939
0.00342299
0.00342659
0.00343019
0.00343379
0.0034374
0.003441
0.00344461
0.00344822
0.00345183
0.00345545
0.00345906
0.00346268
0.0034663
0.00346992
0.00347355
0.00347717
0.0034808
0.00348443
0.00348806
0.00349169
0.00349533
0.00349897
0.00350261
0.00350625
0.00350989
0.00351354
0.00351718
0.00352084
0.00352449
0.00352814
0.00353179
0.00353545
0.00353911
0.00354277
0.00354643
0.00355009
0.00355376
0.00355743
0.0035611
0.00356477
0.00356844
0.00357211
0.00357579
0.00357947
0.00358315
0.00358683
0.00359052
0.00359421
0.00359789
0.00360158
0.00360527
0.00360897
0.00361267
0.00361636
0.00362006
0.00362376
0.00362746
0.00363117
0.00363488
0.00363858
0.0036423
0.00364601
0.00364973
0.00365344
0.00365716
0.00366088
0.0036646
0.00366832
0.00367205
0.00367578
0.00367951
0.00368324
0.00368697
0.00369071
0.00369445
0.00369819
0.00370193
0.00370567
0.00370942
0.00371317
0.00371691
0.00372067
0.00372442
0.00372817
0.00373193
0.00373569
0.00373945
0.00374321
0.00374698
0.00375074
0.00375451
0.00375828
0.00376205
0.00376582
0.0037696
0.00377337
0.00377715
0.00378093
0.00378472
0.0037885
0.00379229
0.00379608
0.00379987
0.00380366
0.00380745
0.00381125
0.00381505
0.00381884
0.00382265
0.00382645
0.00383025
0.00383406
0.00383787
0.00384168
0.0038455
0.00384931
0.00385313
0.00385695
0.00386077
0.00386459
0.00386842
0.00387224
0.00387607
0.0038799
0.00388374
0.00388757
0.0038914
0.00389524
0.00389908
0.00390293
0.00390677
0.00391061
0.00391446
0.00391831
0.00392216
0.00392602
0.00392987
0.00393373
0.00393758
0.00394145
0.00394531
0.00394917
0.00395304
0.0039569
0.00396078
0.00396465
0.00396852
0.00397239
0.00397627
0.00398015
0.00398403
0.00398791
0.0039918
0.00399569
0.00399958
0.00400347
0.00400736
0.00401125
0.00401515
0.00401905
0.00402295
0.00402685
0.00403075
0.00403465
0.00403856
0.00404247
0.00404639
0.0040503
0.00405422
0.00405813
0.00406205
0.00406597
0.00406989
0.00407382
0.00407775
0.00408168
0.00408561
0.00408954
0.00409347
0.00409741
0.00410135
0.00410529
0.00410923
0.00411317
0.00411712
0.00412107
0.00412502
0.00412897
0.00413292
0.00413687
0.00414083
0.00414479
0.00414875
0.00415271
0.00415668
0.00416065
0.00416461
0.00416858
0.00417255
0.00417653
0.0041805
0.00418448
0.00418846
0.00419244
0.00419642
0.00420041
0.0042044
0.00420838
0.00421237
0.00421637
0.00422036
0.00422436
0.00422836
0.00423236
0.00423636
0.00424036
0.00424437
0.00424838
0.00425239
0.0042564
0.00426042
0.00426443
0.00426845
0.00427247
0.00427649
0.00428051
0.00428454
0.00428857
0.00429259
0.00429663
0.00430066
0.00430469
0.00430873
0.00431277
0.00431681
0.00432085
0.0043249
0.00432894
0.00433299
0.00433704
0.00434109
0.00434514
0.0043492
0.00435325
0.00435731
0.00436137
0.00436544
0.0043695
0.00437356
0.00437763
0.0043817
0.00438578
0.00438985
0.00439392
0.004398
0.00440208
0.00440617
0.00441025
0.00441433
0.00441842
0.00442251
0.0044266
0.00443069
0.00443479
0.00443888
0.00444299
0.00444708
0.00445119
0.00445529
0.0044594
0.00446351
0.00446762
0.00447173
0.00447585
0.00447996
0.00448408
0.0044882
0.00449232
0.00449644
0.00450057
0.0045047
0.00450882
0.00451296
0.00451709
0.00452122
0.00452536
0.0045295
0.00453364
0.00453778
0.00454192
0.00454607
0.00455022
0.00455437
0.00455852
0.00456267
0.00456683
0.00457098
0.00457515
0.00457931
0.00458347
0.00458763
0.0045918
0.00459597
0.00460014
0.00460431
0.00460848
0.00461266
0.00461684
0.00462102
0.0046252
0.00462938
0.00463357
0.00463776
0.00464195
0.00464614
0.00465033
0.00465453
0.00465873
0.00466293
0.00466713
0.00467133
0.00467554
0.00467974
0.00468395
0.00468816
0.00469237
0.00469659
0.0047008
0.00470502
0.00470924
0.00471346
0.00471769
0.00472191
0.00472614
0.00473037
0.0047346
0.00473883
0.00474307
0.00474731
0.00475154
0.00475578
0.00476003
0.00476427
0.00476852
0.00477277
0.00477701
0.00478127
0.00478552
0.00478978
0.00479403
0.00479829
0.00480255
0.00480681
0.00481108
0.00481535
0.00481961
0.00482388
0.00482816
0.00483243
0.00483671
0.00484099
0.00484527
0.00484955
0.00485383
0.00485812
0.00486241
0.0048667
0.00487099
0.00487528
0.00487958
0.00488388
0.00488818
0.00489248
0.00489678
0.00490109
0.0049054
0.0049097
0.00491401
0.00491833
0.00492264
0.00492696
0.00493127
0.0049356
0.00493992
0.00494424
0.00494857
0.00495289
0.00495722
0.00496155
0.00496589
0.00497022
0.00497456
0.0049789
0.00498324
0.00498758
0.00499193
0.00499627
0.00500062
0.00500497
0.00500932
0.00501368
0.00501803
0.00502239
0.00502675
0.00503111
0.00503548
0.00503984
0.00504421
0.00504858
0.00505295
0.00505732
0.0050617
0.00506607
0.00507045
0.00507483
0.00507922
0.0050836
0.00508799
0.00509238
0.00509677
0.00510116
0.00510555
0.00510995
0.00511435
0.00511874
0.00512315
0.00512755
0.00513195
0.00513636
0.00514077
0.00514518
0.0051496
0.00515401
0.00515843
0.00516284
0.00516727
0.00517169
0.00517611
0.00518054
0.00518496
0.0051894
0.00519383
0.00519826
0.00520269
0.00520713
0.00521157
0.00521601
0.00522045
0.0052249
0.00522934
0.00523379
0.00523824
0.00524269
0.00524715
0.0052516
0.00525606
0.00526052
0.00526499
0.00526945
0.00527392
0.00527838
0.00528285
0.00528733
0.0052918
0.00529627
0.00530075
0.00530523
0.00530971
0.00531419
0.00531868
0.00532316
0.00532765
0.00533215
0.00533663
0.00534113
0.00534562
0.00535013
0.00535463
0.00535912
0.00536363
0.00536813
0.00537264
0.00537715
0.00538166
0.00538617
0.00539069
0.00539521
0.00539973
0.00540424
0.00540877
0.00541329
0.00541782
0.00542235
0.00542687
0.00543141
0.00543594
0.00544048
0.00544501
0.00544955
0.00545409
0.00545863
0.00546318
0.00546773
0.00547228
0.00547683
0.00548138
0.00548593
0.00549049
0.00549505
0.00549961
0.00550417
0.00550874
0.00551331
0.00551787
0.00552244
0.00552701
0.00553159
0.00553617
0.00554074
0.00554532
0.0055499
0.00555448
0.00555907
0.00556366
0.00556824
0.00557284
0.00557743
0.00558202
0.00558662
0.00559121
0.00559582
0.00560042
0.00560502
0.00560963
0.00561423
0.00561884
0.00562345
0.00562807
0.00563268
0.0056373
0.00564192
0.00564654
0.00565116
0.00565579
0.00566041
0.00566504
0.00566967
0.0056743
0.00567894
0.00568357
0.00568821
0.00569285
0.00569749
0.00570213
0.00570678
0.00571142
0.00571608
0.00572072
0.00572538
0.00573004
0.00573469
0.00573935
0.00574401
0.00574868
0.00575334
0.005758
0.00576267
0.00576734
0.00577202
0.00577669
0.00578136
0.00578604
0.00579072
0.0057954
0.00580009
0.00580477
0.00580946
0.00581415
0.00581884
0.00582353
0.00582822
0.00583292
0.00583762
0.00584232
0.00584702
0.00585172
0.00585643
0.00586114
0.00586585
0.00587056
0.00587527
0.00587999
0.0058847
0.00588942
0.00589414
0.00589886
0.00590359
0.00590832
0.00591304
0.00591778
0.00592251
0.00592724
0.00593198
0.00593672
0.00594146
0.0059462
0.00595094
0.00595569
0.00596044
0.00596519
0.00596994
0.00597469
0.00597945
0.0059842
0.00598897
0.00599373
0.00599849
0.00600325
0.00600802
0.00601279
0.00601756
0.00602233
0.0060271
0.00603188
0.00603666
0.00604144
0.00604622
0.006051
0.00605579
0.00606058
0.00606537
0.00607015
0.00607495
0.00607974
0.00608454
0.00608934
0.00609414
0.00609894
0.00610374
0.00610855
0.00611336
0.00611817
0.00612298
0.00612779
0.00613261
0.00613743
0.00614225
0.00614707
0.00615189
0.00615671
0.00616155
0.00616637
0.0061712
0.00617604
0.00618087
0.00618571
0.00619055
0.00619539
0.00620023
0.00620507
0.00620992
0.00621477
0.00621962
0.00622447
0.00622932
0.00623418
0.00623904
0.00624389
0.00624876
0.00625362
0.00625849
0.00626335
0.00626822
0.00627309
0.00627796