/*--------------------------------*- C++ -*----------------------------------*\
| =========                 |                                                 |
| \\      /  F ield         | OpenFOAM: The Open Source CFD Toolbox           |
|  \\    /   O peration     | Version:  2206                                  |
|   \\  /    A nd           | Website:  www.openfoam.com                      |
|    \\/     M anipulation  |                                                 |
\*---------------------------------------------------------------------------*/
FoamFile
{
    version     2.0;
    format      ascii;
    arch        "LSB;label=32;scalar=64";
    class       volScalarField;
    location    "310";
    object      p;
}
// * * * * * * * * * * * * * * * * * * * * * * * * * * * * * * * * * * * * * //

dimensions      [0 2 -2 0 0 0 0];

internalField   nonuniform List<scalar> 
100000
(
1.12026e-09
9.32137e-09
8.18625e-09
1.14497e-08
1.52593e-08
2.32964e-08
2.7741e-08
4.14613e-08
5.28784e-08
7.22591e-08
8.92595e-08
1.06219e-07
1.28341e-07
1.51004e-07
1.78694e-07
2.06521e-07
2.31981e-07
2.64685e-07
2.95755e-07
3.34161e-07
3.7005e-07
4.06535e-07
4.46866e-07
4.89471e-07
5.34874e-07
5.83587e-07
6.33532e-07
6.8034e-07
7.34784e-07
7.87525e-07
8.47286e-07
9.0519e-07
9.62511e-07
1.02536e-06
1.08823e-06
1.15669e-06
1.22446e-06
1.29069e-06
1.36324e-06
1.43514e-06
1.5132e-06
1.59008e-06
1.66582e-06
1.74755e-06
1.8289e-06
1.91617e-06
2.00246e-06
2.08745e-06
2.17857e-06
2.26917e-06
2.36583e-06
2.46137e-06
2.55574e-06
2.65611e-06
2.75611e-06
2.862e-06
2.96694e-06
3.07052e-06
3.18033e-06
3.28948e-06
3.40486e-06
3.5189e-06
3.63205e-06
3.75086e-06
3.86969e-06
3.99395e-06
4.1178e-06
4.23964e-06
4.3685e-06
4.49575e-06
4.63038e-06
4.76226e-06
4.89494e-06
5.03127e-06
5.17003e-06
5.3114e-06
5.45622e-06
5.60207e-06
5.74495e-06
5.89536e-06
6.04408e-06
6.19983e-06
6.35364e-06
6.50694e-06
6.66572e-06
6.82452e-06
6.98893e-06
7.15257e-06
7.31474e-06
7.48318e-06
7.65098e-06
7.82493e-06
7.99767e-06
8.1693e-06
8.34692e-06
8.52412e-06
8.7073e-06
8.88939e-06
9.0703e-06
9.25722e-06
9.44373e-06
9.63619e-06
9.82762e-06
1.00178e-05
1.02141e-05
1.04098e-05
1.06117e-05
1.08122e-05
1.10119e-05
1.12172e-05
1.14226e-05
1.16333e-05
1.18437e-05
1.2052e-05
1.22674e-05
1.24812e-05
1.27023e-05
1.29207e-05
1.31399e-05
1.33627e-05
1.3588e-05
1.38158e-05
1.40471e-05
1.42795e-05
1.45089e-05
1.47458e-05
1.4981e-05
1.52232e-05
1.54635e-05
1.57033e-05
1.59486e-05
1.61939e-05
1.64448e-05
1.66949e-05
1.69435e-05
1.71985e-05
1.74527e-05
1.77132e-05
1.79724e-05
1.82305e-05
1.84946e-05
1.87583e-05
1.90279e-05
1.92965e-05
1.95639e-05
1.98373e-05
2.01103e-05
2.03893e-05
2.06671e-05
2.09438e-05
2.12265e-05
2.15088e-05
2.1797e-05
2.20842e-05
2.23701e-05
2.26622e-05
2.29536e-05
2.32513e-05
2.35476e-05
2.38431e-05
2.41442e-05
2.44453e-05
2.47518e-05
2.5058e-05
2.53621e-05
2.56732e-05
2.59827e-05
2.62996e-05
2.66138e-05
2.69287e-05
2.72473e-05
2.75683e-05
2.7892e-05
2.82191e-05
2.85471e-05
2.88723e-05
2.92049e-05
2.95359e-05
2.98739e-05
3.021e-05
3.05455e-05
3.08866e-05
3.12276e-05
3.15743e-05
3.19201e-05
3.22646e-05
3.26152e-05
3.29653e-05
3.33215e-05
3.36765e-05
3.40303e-05
3.43902e-05
3.47496e-05
3.5115e-05
3.54794e-05
3.58425e-05
3.62117e-05
3.65804e-05
3.69551e-05
3.73287e-05
3.77011e-05
3.80797e-05
3.84576e-05
3.88417e-05
3.92245e-05
3.96064e-05
3.99939e-05
4.03815e-05
4.07745e-05
4.11671e-05
4.15577e-05
4.19553e-05
4.23512e-05
4.27546e-05
4.31552e-05
4.35566e-05
4.39616e-05
4.43691e-05
4.47792e-05
4.51927e-05
4.56073e-05
4.60189e-05
4.6438e-05
4.68554e-05
4.72799e-05
4.77024e-05
4.81244e-05
4.85519e-05
4.89794e-05
4.94125e-05
4.98448e-05
5.02757e-05
5.07128e-05
5.11493e-05
5.1592e-05
5.20334e-05
5.24737e-05
5.292e-05
5.33659e-05
5.38178e-05
5.42686e-05
5.47181e-05
5.51738e-05
5.56289e-05
5.60901e-05
5.65502e-05
5.70091e-05
5.7474e-05
5.79385e-05
5.84089e-05
5.88783e-05
5.93464e-05
5.98207e-05
6.02944e-05
6.07743e-05
6.12528e-05
6.17304e-05
6.22137e-05
6.2697e-05
6.31858e-05
6.36741e-05
6.41604e-05
6.46538e-05
6.51455e-05
6.56446e-05
6.61409e-05
6.66381e-05
6.71389e-05
6.76421e-05
6.81479e-05
6.86572e-05
6.91675e-05
6.96749e-05
7.01897e-05
7.07029e-05
7.12231e-05
7.17413e-05
7.22591e-05
7.27823e-05
7.33056e-05
7.38344e-05
7.43625e-05
7.48891e-05
7.5422e-05
7.59542e-05
7.64926e-05
7.70298e-05
7.75659e-05
7.81079e-05
7.86495e-05
7.91972e-05
7.97437e-05
8.0289e-05
8.08404e-05
8.13913e-05
8.19482e-05
8.2504e-05
8.30586e-05
8.36193e-05
8.41794e-05
8.47458e-05
8.53107e-05
8.58748e-05
8.64446e-05
8.70143e-05
8.75895e-05
8.81643e-05
8.87371e-05
8.93169e-05
8.9895e-05
9.04806e-05
9.10633e-05
9.1647e-05
9.22342e-05
9.28239e-05
9.34161e-05
9.40119e-05
9.46086e-05
9.52024e-05
9.58037e-05
9.64033e-05
9.701e-05
9.76147e-05
9.82189e-05
9.88286e-05
9.94382e-05
0.000100054
0.000100668
0.000101281
0.0001019
0.000102519
0.000103144
0.000103768
0.00010439
0.000105019
0.000105647
0.000106281
0.000106914
0.000107545
0.000108183
0.000108821
0.000109464
0.000110106
0.000110747
0.000111394
0.000112041
0.000112694
0.000113345
0.000113996
0.000114652
0.000115308
0.00011597
0.000116631
0.000117291
0.000117956
0.000118622
0.000119293
0.000119963
0.000120632
0.000121307
0.000121981
0.000122662
0.000123341
0.00012402
0.000124703
0.000125389
0.000126077
0.000126768
0.00012746
0.00012815
0.000128847
0.000129542
0.000130245
0.000130945
0.000131645
0.000132351
0.000133056
0.000133767
0.000134477
0.000135186
0.000135901
0.000136616
0.000137336
0.000138056
0.000138774
0.000139498
0.000140222
0.000140952
0.00014168
0.000142408
0.000143141
0.000143875
0.000144614
0.000145352
0.000146088
0.000146831
0.000147574
0.000148322
0.000149069
0.000149816
0.000150568
0.000151319
0.000152077
0.000152834
0.000153589
0.000154351
0.000155111
0.000155879
0.000156644
0.00015741
0.000158179
0.000158951
0.000159725
0.000160503
0.000161282
0.000162058
0.000162842
0.000163623
0.000164412
0.000165199
0.000165986
0.000166777
0.000167569
0.000168367
0.000169163
0.000169959
0.00017076
0.000171561
0.000172368
0.000173174
0.000173979
0.000174789
0.0001756
0.000176416
0.000177231
0.000178045
0.000178865
0.000179684
0.00018051
0.000181334
0.000182158
0.000182987
0.000183816
0.000184651
0.000185484
0.000186317
0.000187156
0.000187994
0.000188838
0.000189681
0.000190523
0.00019137
0.000192218
0.000193071
0.000193924
0.000194775
0.000195632
0.000196488
0.000197352
0.000198213
0.000199074
0.000199939
0.000200807
0.000201677
0.000202551
0.000203425
0.000204297
0.000205176
0.000206054
0.000206938
0.000207821
0.000208703
0.000209591
0.000210478
0.000211372
0.000212264
0.000213155
0.000214052
0.000214949
0.000215852
0.000216753
0.000217654
0.00021856
0.000219466
0.000220378
0.000221289
0.000222199
0.000223114
0.00022403
0.000224951
0.000225871
0.00022679
0.000227715
0.00022864
0.00022957
0.0002305
0.000231428
0.000232362
0.000233296
0.000234236
0.000235175
0.000236112
0.000237056
0.000237999
0.000238949
0.000239896
0.000240844
0.000241796
0.00024275
0.000243706
0.000244666
0.000245627
0.000246586
0.000247551
0.000248515
0.000249486
0.000250455
0.000251424
0.000252398
0.000253372
0.000254352
0.000255331
0.000256308
0.000257292
0.000258275
0.000259264
0.000260252
0.000261239
0.000262232
0.000263224
0.000264223
0.00026522
0.000266216
0.000267218
0.00026822
0.000269228
0.000270234
0.00027124
0.000272251
0.000273262
0.000274279
0.000275295
0.00027631
0.000277331
0.000278351
0.000279377
0.000280402
0.000281427
0.000282456
0.000283486
0.000284522
0.000285556
0.000286589
0.000287629
0.000288667
0.000289713
0.000290756
0.0002918
0.000292847
0.000293897
0.000294949
0.000296005
0.000297062
0.000298116
0.000299177
0.000300237
0.000301304
0.000302368
0.000303433
0.000304503
0.000305572
0.000306648
0.000307722
0.000308796
0.000309875
0.000310954
0.000312039
0.000313122
0.000314205
0.000315294
0.000316382
0.000317476
0.000318569
0.000319661
0.000320759
0.000321856
0.00032296
0.000324062
0.000325163
0.000326271
0.000327377
0.00032849
0.000329602
0.000330712
0.000331829
0.000332945
0.000334067
0.000335188
0.000336307
0.000337434
0.000338558
0.00033969
0.00034082
0.00034195
0.000343084
0.00034422
0.000345359
0.000346501
0.000347644
0.000348785
0.000349932
0.000351079
0.000352232
0.000353383
0.000354534
0.00035569
0.000356846
0.000358008
0.000359169
0.000360329
0.000361495
0.00036266
0.000363831
0.000365001
0.00036617
0.000367345
0.00036852
0.000369701
0.00037088
0.000372058
0.000373243
0.000374427
0.000375617
0.000376805
0.000377993
0.000379187
0.00038038
0.000381579
0.000382777
0.000383974
0.000385177
0.00038638
0.000387588
0.000388795
0.000390002
0.000391214
0.000392426
0.000393643
0.00039486
0.000396075
0.000397298
0.000398518
0.000399746
0.000400971
0.000402197
0.000403426
0.000404658
0.000405893
0.000407131
0.00040837
0.000409606
0.000410849
0.000412091
0.00041334
0.000414587
0.000415834
0.000417086
0.000418338
0.000419595
0.000420852
0.000422107
0.000423369
0.00042463
0.000425897
0.000427163
0.000428428
0.000429699
0.000430969
0.000432245
0.000433521
0.000434795
0.000436075
0.000437354
0.00043864
0.000439925
0.000441208
0.000442497
0.000443786
0.000445081
0.000446375
0.000447668
0.000448966
0.000450265
0.000451569
0.000452872
0.000454174
0.000455482
0.000456789
0.000458103
0.000459415
0.000460727
0.000462043
0.000463361
0.000464682
0.000466007
0.000467332
0.000468655
0.000469985
0.000471313
0.000472649
0.000473982
0.000475315
0.000476653
0.000477992
0.000479336
0.000480679
0.000482021
0.000483369
0.000484716
0.00048607
0.000487422
0.000488773
0.000490131
0.000491487
0.00049285
0.000494212
0.000495572
0.000496939
0.000498305
0.000499677
0.000501048
0.000502418
0.000503794
0.000505169
0.00050655
0.000507931
0.00050931
0.000510695
0.00051208
0.00051347
0.00051486
0.000516248
0.000517643
0.000519037
0.000520436
0.000521836
0.000523233
0.000524637
0.00052604
0.00052745
0.000528857
0.000530265
0.000531677
0.000533091
0.000534508
0.000535928
0.000537349
0.000538767
0.000540193
0.000541617
0.000543048
0.000544477
0.000545906
0.00054734
0.000548774
0.000550214
0.000551653
0.000553091
0.000554534
0.000555978
0.000557427
0.000558875
0.000560322
0.000561775
0.000563227
0.000564686
0.000566143
0.0005676
0.000569062
0.000570524
0.000571991
0.000573458
0.000574924
0.000576395
0.000577866
0.000579344
0.000580819
0.000582294
0.000583775
0.000585256
0.000586742
0.000588228
0.000589711
0.000591202
0.000592691
0.000594187
0.000595681
0.000597176
0.000598674
0.000600174
0.000601677
0.000603184
0.000604692
0.000606197
0.000607709
0.000609219
0.000610737
0.000612252
0.000613767
0.000615288
0.000616809
0.000618335
0.00061986
0.000621384
0.000622914
0.000624444
0.00062598
0.000627514
0.000629048
0.000630587
0.000632126
0.000633671
0.000635215
0.000636758
0.000638306
0.000639855
0.000641409
0.000642962
0.000644514
0.000646072
0.00064763
0.000649193
0.000650756
0.000652317
0.000653884
0.000655451
0.000657024
0.000658595
0.000660166
0.000661743
0.000663319
0.000664901
0.000666482
0.000668062
0.000669648
0.000671233
0.000672825
0.000674414
0.000676005
0.000677599
0.000679195
0.000680794
0.000682396
0.000684
0.0006856
0.000687208
0.000688814
0.000690428
0.000692039
0.00069365
0.000695266
0.000696882
0.000698504
0.000700125
0.000701745
0.000703371
0.000704996
0.000706628
0.000708258
0.000709887
0.000711522
0.000713157
0.000714798
0.000716437
0.000718076
0.00071972
0.000721364
0.000723014
0.000724663
0.000726311
0.000727965
0.000729618
0.000731277
0.000732935
0.000734592
0.000736255
0.000737918
0.000739586
0.000741254
0.00074292
0.000744593
0.000746264
0.000747943
0.000749619
0.000751295
0.000752976
0.000754659
0.000756344
0.000758033
0.000759722
0.000761409
0.000763104
0.000764796
0.000766496
0.000768194
0.000769891
0.000771594
0.000773297
0.000775005
0.000776713
0.000778419
0.000780131
0.000781843
0.000783561
0.000785278
0.000786993
0.000788715
0.000790436
0.000792163
0.000793889
0.000795614
0.000797345
0.000799075
0.000800812
0.000802547
0.000804281
0.000806021
0.000807761
0.000809507
0.000811252
0.000812995
0.000814745
0.000816493
0.000818249
0.000820002
0.000821755
0.000823514
0.000825272
0.000827036
0.0008288
0.000830562
0.00083233
0.000834097
0.000835872
0.000837643
0.000839416
0.000841192
0.00084297
0.000844751
0.000846536
0.000848321
0.000850104
0.000851894
0.000853682
0.000855478
0.000857271
0.000859064
0.000860863
0.000862661
0.000864466
0.000866269
0.000868071
0.000869879
0.000871686
0.0008735
0.000875313
0.000877124
0.000878941
0.000880758
0.000882581
0.000884403
0.000886223
0.00088805
0.000889876
0.000891708
0.000893539
0.000895369
0.000897205
0.000899041
0.000900882
0.000902722
0.000904562
0.000906407
0.000908252
0.000910102
0.000911952
0.0009138
0.000915655
0.000917509
0.00091937
0.000921228
0.000923086
0.000924949
0.000926814
0.000928681
0.000930552
0.000932424
0.000934293
0.00093617
0.000938045
0.000939927
0.000941807
0.000943686
0.000945571
0.000947456
0.000949347
0.000951236
0.000953125
0.000955019
0.000956913
0.000958813
0.000960712
0.00096261
0.000964514
0.000966417
0.000968326
0.000970235
0.000972142
0.000974055
0.000975967
0.000977886
0.000979803
0.00098172
0.000983642
0.000985564
0.000987492
0.000989419
0.000991344
0.000993276
0.000995207
0.000997145
0.00099908
0.00100102
0.00100296
0.0010049
0.00100684
0.00100879
0.00101073
0.00101268
0.00101463
0.00101659
0.00101854
0.0010205
0.00102246
0.00102442
0.00102638
0.00102835
0.00103031
0.00103228
0.00103425
0.00103622
0.0010382
0.00104018
0.00104215
0.00104413
0.00104611
0.0010481
0.00105008
0.00105207
0.00105406
0.00105605
0.00105804
0.00106004
0.00106203
0.00106403
0.00106603
0.00106804
0.00107004
0.00107204
0.00107405
0.00107606
0.00107807
0.00108009
0.0010821
0.00108412
0.00108613
0.00108816
0.00109018
0.0010922
0.00109423
0.00109626
0.00109829
0.00110032
0.00110235
0.00110439
0.00110642
0.00110847
0.00111051
0.00111255
0.00111459
0.00111664
0.00111869
0.00112074
0.0011228
0.00112485
0.00112691
0.00112896
0.00113103
0.00113309
0.00113515
0.00113722
0.00113929
0.00114136
0.00114343
0.0011455
0.00114758
0.00114965
0.00115174
0.00115382
0.0011559
0.00115798
0.00116007
0.00116216
0.00116425
0.00116634
0.00116844
0.00117053
0.00117263
0.00117473
0.00117683
0.00117893
0.00118104
0.00118315
0.00118526
0.00118736
0.00118948
0.00119159
0.00119371
0.00119583
0.00119795
0.00120007
0.00120219
0.00120432
0.00120645
0.00120858
0.00121071
0.00121284
0.00121498
0.00121711
0.00121925
0.00122139
0.00122353
0.00122568
0.00122783
0.00122998
0.00123213
0.00123428
0.00123643
0.00123859
0.00124075
0.00124291
0.00124507
0.00124723
0.0012494
0.00125157
0.00125374
0.00125591
0.00125808
0.00126026
0.00126243
0.00126461
0.00126679
0.00126897
0.00127116
0.00127335
0.00127553
0.00127772
0.00127991
0.00128211
0.00128431
0.0012865
0.0012887
0.0012909
0.00129311
0.00129531
0.00129751
0.00129972
0.00130193
0.00130415
0.00130636
0.00130857
0.00131079
0.00131301
0.00131524
0.00131746
0.00131968
0.00132191
0.00132414
0.00132637
0.00132861
0.00133084
0.00133308
0.00133532
0.00133756
0.0013398
0.00134205
0.00134429
0.00134654
0.00134879
0.00135104
0.0013533
0.00135555
0.00135781
0.00136007
0.00136233
0.00136459
0.00136686
0.00136913
0.00137139
0.00137367
0.00137594
0.00137821
0.00138049
0.00138276
0.00138505
0.00138733
0.00138961
0.0013919
0.00139418
0.00139648
0.00139877
0.00140106
0.00140335
0.00140565
0.00140795
0.00141025
0.00141255
0.00141485
0.00141716
0.00141947
0.00142178
0.00142409
0.0014264
0.00142872
0.00143104
0.00143336
0.00143568
0.001438
0.00144032
0.00144265
0.00144498
0.00144731
0.00144964
0.00145198
0.00145431
0.00145666
0.001459
0.00146134
0.00146368
0.00146603
0.00146838
0.00147073
0.00147308
0.00147543
0.00147778
0.00148014
0.0014825
0.00148486
0.00148722
0.00148959
0.00149196
0.00149433
0.00149669
0.00149907
0.00150144
0.00150382
0.0015062
0.00150857
0.00151095
0.00151334
0.00151572
0.00151811
0.0015205
0.00152289
0.00152528
0.00152768
0.00153007
0.00153247
0.00153487
0.00153727
0.00153968
0.00154208
0.00154449
0.0015469
0.00154931
0.00155172
0.00155414
0.00155656
0.00155897
0.0015614
0.00156382
0.00156625
0.00156867
0.0015711
0.00157353
0.00157596
0.0015784
0.00158083
0.00158327
0.00158571
0.00158815
0.0015906
0.00159304
0.00159549
0.00159794
0.00160039
0.00160284
0.0016053
0.00160775
0.00161021
0.00161267
0.00161514
0.0016176
0.00162006
0.00162253
0.001625
0.00162747
0.00162995
0.00163242
0.0016349
0.00163738
0.00163986
0.00164234
0.00164482
0.00164731
0.0016498
0.00165229
0.00165478
0.00165727
0.00165977
0.00166227
0.00166477
0.00166727
0.00166977
0.00167228
0.00167478
0.00167729
0.00167981
0.00168232
0.00168483
0.00168735
0.00168987
0.00169239
0.00169491
0.00169744
0.00169996
0.00170249
0.00170502
0.00170755
0.00171009
0.00171262
0.00171516
0.0017177
0.00172024
0.00172278
0.00172533
0.00172787
0.00173043
0.00173298
0.00173552
0.00173808
0.00174064
0.0017432
0.00174576
0.00174831
0.00175088
0.00175344
0.00175601
0.00175858
0.00176115
0.00176372
0.0017663
0.00176888
0.00177146
0.00177403
0.00177662
0.0017792
0.00178179
0.00178437
0.00178696
0.00178955
0.00179215
0.00179474
0.00179734
0.00179994
0.00180254
0.00180515
0.00180775
0.00181036
0.00181297
0.00181558
0.00181819
0.00182081
0.00182342
0.00182604
0.00182866
0.00183128
0.00183391
0.00183653
0.00183916
0.00184179
0.00184442
0.00184705
0.00184969
0.00185233
0.00185496
0.00185761
0.00186025
0.00186289
0.00186554
0.00186819
0.00187084
0.00187349
0.00187614
0.0018788
0.00188145
0.00188411
0.00188677
0.00188944
0.0018921
0.00189477
0.00189744
0.00190011
0.00190278
0.00190546
0.00190813
0.00191081
0.00191349
0.00191617
0.00191885
0.00192154
0.00192422
0.00192691
0.00192961
0.0019323
0.001935
0.00193769
0.00194039
0.00194309
0.0019458
0.0019485
0.00195121
0.00195392
0.00195662
0.00195934
0.00196205
0.00196477
0.00196749
0.0019702
0.00197293
0.00197565
0.00197837
0.0019811
0.00198383
0.00198656
0.0019893
0.00199203
0.00199477
0.0019975
0.00200025
0.00200299
0.00200573
0.00200848
0.00201122
0.00201397
0.00201673
0.00201948
0.00202223
0.00202499
0.00202775
0.00203051
0.00203327
0.00203603
0.0020388
0.00204157
0.00204434
0.00204711
0.00204988
0.00205266
0.00205544
0.00205822
0.002061
0.00206378
0.00206657
0.00206935
0.00207215
0.00207494
0.00207773
0.00208052
0.00208332
0.00208612
0.00208892
0.00209172
0.00209453
0.00209733
0.00210014
0.00210295
0.00210576
0.00210858
0.00211139
0.00211421
0.00211703
0.00211985
0.00212267
0.00212549
0.00212832
0.00213115
0.00213398
0.00213681
0.00213965
0.00214248
0.00214532
0.00214816
0.002151
0.00215384
0.00215669
0.00215954
0.00216238
0.00216524
0.00216809
0.00217094
0.0021738
0.00217666
0.00217952
0.00218238
0.00218525
0.00218811
0.00219098
0.00219384
0.00219672
0.00219959
0.00220247
0.00220535
0.00220822
0.00221111
0.00221399
0.00221688
0.00221976
0.00222265
0.00222554
0.00222843
0.00223133
0.00223422
0.00223712
0.00224002
0.00224292
0.00224583
0.00224873
0.00225164
0.00225455
0.00225746
0.00226037
0.00226329
0.0022662
0.00226912
0.00227204
0.00227497
0.00227789
0.00228081
0.00228374
0.00228667
0.00228961
0.00229254
0.00229547
0.00229841
0.00230135
0.00230429
0.00230723
0.00231018
0.00231312
0.00231607
0.00231902
0.00232198
0.00232493
0.00232788
0.00233084
0.0023338
0.00233676
0.00233972
0.00234269
0.00234566
0.00234863
0.0023516
0.00235457
0.00235755
0.00236052
0.0023635
0.00236649
0.00236947
0.00237245
0.00237544
0.00237842
0.00238142
0.00238441
0.0023874
0.0023904
0.00239339
0.0023964
0.0023994
0.0024024
0.0024054
0.00240841
0.00241142
0.00241443
0.00241744
0.00242046
0.00242347
0.00242649
0.00242951
0.00243253
0.00243556
0.00243858
0.00244161
0.00244464
0.00244767
0.0024507
0.00245373
0.00245677
0.00245981
0.00246285
0.00246589
0.00246894
0.00247199
0.00247503
0.00247808
0.00248113
0.00248418
0.00248724
0.0024903
0.00249336
0.00249642
0.00249948
0.00250255
0.00250562
0.00250869
0.00251176
0.00251483
0.0025179
0.00252098
0.00252406
0.00252714
0.00253022
0.0025333
0.00253639
0.00253948
0.00254257
0.00254566
0.00254875
0.00255185
0.00255495
0.00255804
0.00256115
0.00256425
0.00256735
0.00257046
0.00257357
0.00257668
0.00257979
0.0025829
0.00258602
0.00258913
0.00259225
0.00259537
0.0025985
0.00260163
0.00260475
0.00260788
0.00261101
0.00261414
0.00261728
0.00262041
0.00262355
0.00262669
0.00262983
0.00263298
0.00263612
0.00263927
0.00264242
0.00264557
0.00264872
0.00265188
0.00265503
0.00265819
0.00266135
0.00266452
0.00266769
0.00267085
0.00267402
0.00267719
0.00268036
0.00268354
0.00268671
0.00268989
0.00269307
0.00269625
0.00269944
0.00270262
0.00270581
0.00270899
0.00271219
0.00271538
0.00271857
0.00272177
0.00272497
0.00272817
0.00273137
0.00273457
0.00273778
0.00274099
0.0027442
0.00274741
0.00275062
0.00275384
0.00275705
0.00276027
0.00276349
0.00276671
0.00276994
0.00277316
0.0027764
0.00277963
0.00278286
0.00278609
0.00278932
0.00279256
0.0027958
0.00279905
0.00280229
0.00280554
0.00280878
0.00281203
0.00281529
0.00281854
0.00282179
0.00282505
0.00282831
0.00283157
0.00283483
0.00283809
0.00284136
0.00284463
0.0028479
0.00285117
0.00285444
0.00285772
0.002861
0.00286428
0.00286756
0.00287084
0.00287412
0.00287741
0.0028807
0.00288399
0.00288728
0.00289057
0.00289387
0.00289717
0.00290047
0.00290377
0.00290707
0.00291038
0.00291369
0.00291699
0.00292031
0.00292362
0.00292693
0.00293025
0.00293357
0.00293689
0.00294021
0.00294354
0.00294686
0.00295019
0.00295351
0.00295685
0.00296018
0.00296352
0.00296686
0.00297019
0.00297354
0.00297688
0.00298023
0.00298357
0.00298692
0.00299027
0.00299362
0.00299698
0.00300034
0.00300369
0.00300705
0.00301041
0.00301378
0.00301715
0.00302051
0.00302388
0.00302725
0.00303063
0.003034
0.00303738
0.00304076
0.00304413
0.00304752
0.0030509
0.00305429
0.00305768
0.00306106
0.00306446
0.00306785
0.00307125
0.00307464
0.00307804
0.00308145
0.00308485
0.00308825
0.00309166
0.00309506
0.00309848
0.00310189
0.0031053
0.00310872
0.00311214
0.00311556
0.00311898
0.00312241
0.00312583
0.00312926
0.00313269
0.00313612
0.00313955
0.00314299
0.00314642
0.00314986
0.00315331
0.00315675
0.00316019
0.00316364
0.00316708
0.00317054
0.00317399
0.00317744
0.0031809
0.00318435
0.00318782
0.00319128
0.00319474
0.0031982
0.00320167
0.00320514
0.00320861
0.00321208
0.00321556
0.00321903
0.00322251
0.00322599
0.00322947
0.00323296
0.00323644
0.00323993
0.00324342
0.00324691
0.0032504
0.0032539
0.0032574
0.0032609
0.00326439
0.0032679
0.0032714
0.00327491
0.00327842
0.00328192
0.00328543
0.00328895
0.00329246
0.00329598
0.00329951
0.00330302
0.00330655
0.00331007
0.0033136
0.00331713
0.00332066
0.00332419
0.00332773
0.00333127
0.00333481
0.00333834
0.00334189
0.00334543
0.00334898
0.00335253
0.00335607
0.00335963
0.00336318
0.00336674
0.00337029
0.00337385
0.00337741
0.00338097
0.00338454
0.00338811
0.00339167
0.00339524
0.00339881
0.00340239
0.00340597
0.00340954
0.00341312
0.0034167
0.00342029
0.00342387
0.00342746
0.00343105
0.00343464
0.00343823
0.00344182
0.00344542
0.00344902
0.00345262
0.00345622
0.00345983
0.00346343
0.00346704
0.00347065
0.00347426
0.00347788
0.00348149
0.00348511
0.00348873
0.00349235
0.00349597
0.0034996
0.00350322
0.00350685
0.00351048
0.00351412
0.00351775
0.00352138
0.00352502
0.00352866
0.00353231
0.00353595
0.00353959
0.00354324
0.00354689
0.00355054
0.0035542
0.00355785
0.00356151
0.00356516
0.00356883
0.00357249
0.00357615
0.00357982
0.00358348
0.00358715
0.00359083
0.0035945
0.00359817
0.00360185
0.00360553
0.00360921
0.00361289
0.00361658
0.00362026
0.00362395
0.00362764
0.00363133
0.00363503
0.00363872
0.00364242
0.00364612
0.00364983
0.00365353
0.00365723
0.00366094
0.00366465
0.00366836
0.00367207
0.00367579
0.00367951
0.00368323
0.00368695
0.00369067
0.00369439
0.00369812
0.00370185
0.00370558
0.00370931
0.00371304
0.00371678
0.00372052
0.00372426
0.00372799
0.00373174
0.00373548
0.00373923
0.00374298
0.00374673
0.00375048
0.00375423
0.00375799
0.00376175
0.00376551
0.00376927
0.00377303
0.0037768
0.00378057
0.00378433
0.00378811
0.00379188
0.00379566
0.00379943
0.00380321
0.00380699
0.00381077
0.00381456
0.00381834
0.00382213
0.00382592
0.00382971
0.00383351
0.00383731
0.0038411
0.0038449
0.0038487
0.0038525
0.00385631
0.00386012
0.00386393
0.00386774
0.00387155
0.00387537
0.00387918
0.003883
0.00388682
0.00389064
0.00389447
0.00389829
0.00390212
0.00390595
0.00390978
0.00391361
0.00391745
0.00392128
0.00392512
0.00392896
0.00393281
0.00393665
0.0039405
0.00394435
0.00394819
0.00395205
0.0039559
0.00395975
0.00396361
0.00396747
0.00397133
0.0039752
0.00397906
0.00398293
0.00398679
0.00399067
0.00399454
0.00399841
0.00400229
0.00400617
0.00401005
0.00401393
0.00401782
0.0040217
0.00402559
0.00402948
0.00403337
0.00403726
0.00404116
0.00404506
0.00404895
0.00405286
0.00405676
0.00406066
0.00406457
0.00406848
0.00407239
0.0040763
0.00408021
0.00408413
0.00408805
0.00409197
0.00409589
0.00409981
0.00410374
0.00410766
0.00411159
0.00411553
0.00411946
0.00412339
0.00412733
0.00413127
0.00413521
0.00413915
0.00414309
0.00414704
0.00415099
0.00415494
0.00415888
0.00416284
0.00416679
0.00417075
0.00417471
0.00417867
0.00418263
0.00418659
0.00419056
0.00419453
0.0041985
0.00420247
0.00420645
0.00421042
0.00421441
0.00421838
0.00422236
0.00422635
0.00423033
0.00423432
0.00423831
0.0042423
0.0042463
0.00425029
0.00425429
0.00425829
0.00426228
0.00426629
0.00427029
0.0042743
0.00427831
0.00428231
0.00428633
0.00429034
0.00429436
0.00429837
0.00430239
0.00430641
0.00431043
0.00431446
0.00431849
0.00432251
0.00432655
0.00433058
0.00433461
0.00433865
0.00434268
0.00434672
0.00435076
0.00435481
0.00435886
0.0043629
0.00436695
0.004371
0.00437505
0.00437911
0.00438316
0.00438722
0.00439128
0.00439534
0.00439941
0.00440348
0.00440754
0.00441161
0.00441568
0.00441976
0.00442384
0.00442791
0.00443199
0.00443607
0.00444016
0.00444424
0.00444833
0.00445242
0.00445651
0.0044606
0.0044647
0.00446879
0.00447289
0.00447699
0.00448109
0.0044852
0.0044893
0.00449341
0.00449751
0.00450163
0.00450574
0.00450985
0.00451397
0.00451809
0.00452221
0.00452633
0.00453046
0.00453458
0.00453871
0.00454284
0.00454697
0.0045511
0.00455524
0.00455938
0.00456352
0.00456766
0.0045718
0.00457594
0.00458009
0.00458424
0.00458839
0.00459255
0.0045967
0.00460086
0.00460501
0.00460918
0.00461334
0.0046175
0.00462167
0.00462583
0.00463
0.00463418
0.00463835
0.00464252
0.0046467
0.00465088
0.00465506
0.00465924
0.00466343
0.00466761
0.0046718
0.00467599
0.00468018
0.00468438
0.00468857
0.00469277
0.00469697
0.00470117
0.00470537
0.00470958
0.00471379
0.004718
0.0047222
0.00472642
0.00473063
0.00473485
0.00473907
0.00474328
0.00474751
0.00475173
0.00475596
0.00476018
0.00476441
0.00476864
0.00477287
0.00477711
0.00478135
0.00478558
0.00478982
0.00479407
0.00479831
0.00480256
0.00480681
0.00481106
0.00481531
0.00481956
0.00482382
0.00482808
0.00483234
0.0048366
0.00484086
0.00484513
0.0048494
0.00485366
0.00485794
0.00486221
0.00486649
0.00487076
0.00487504
0.00487932
0.0048836
0.00488789
0.00489217
0.00489646
0.00490075
0.00490504
0.00490933
0.00491363
0.00491792
0.00492222
0.00492652
0.00493083
0.00493513
0.00493944
0.00494374
0.00494805
0.00495237
0.00495668
0.00496099
0.00496531
0.00496963
0.00497396
0.00497828
0.0049826
0.00498693
0.00499126
0.00499559
0.00499992
0.00500426
0.00500859
0.00501293
0.00501727
0.00502162
0.00502596
0.0050303
0.00503465
0.005039
0.00504336
0.00504771
0.00505206
0.00505642
0.00506078
0.00506514
0.00506951
0.00507387
0.00507824
0.0050826
0.00508698
0.00509135
0.00509572
0.0051001
0.00510447
0.00510886
0.00511324
0.00511762
0.00512201
0.00512639
0.00513078
0.00513517
0.00513956
0.00514396
0.00514835
0.00515276
0.00515716
0.00516155
0.00516596
0.00517036
0.00517477
0.00517918
0.00518359
0.00518801
0.00519242
0.00519684
0.00520126
0.00520568
0.0052101
0.00521452
0.00521895
0.00522338
0.00522781
0.00523224
0.00523668
0.00524111
0.00524556
0.00525
0.00525443
0.00525888
0.00526332
0.00526777
0.00527222
0.00527667
0.00528113
0.00528558
0.00529004
0.0052945
0.00529896
0.00530342
0.00530788
0.00531235
0.00531682
0.00532129
0.00532576
0.00533023
0.00533471
0.00533919
0.00534366
0.00534815
0.00535263
0.00535711
0.0053616
0.00536609
0.00537058
0.00537507
0.00537957
0.00538406
0.00538856
0.00539306
0.00539756
0.00540206
0.00540657
0.00541107
0.00541558
0.00542009
0.00542461
0.00542912
0.00543364
0.00543816
0.00544268
0.0054472
0.00545173
0.00545626
0.00546078
0.00546531
0.00546984
0.00547438
0.00547892
0.00548345
0.00548799
0.00549253
0.00549708
0.00550162
0.00550617
0.00551072
0.00551527
0.00551982
0.00552438
0.00552893
0.00553349
0.00553805
0.00554261
0.00554718
0.00555174
0.00555631
0.00556088
0.00556545
0.00557002
0.0055746
0.00557917
0.00558375
0.00558833
0.00559292
0.0055975
0.00560208
0.00560667
0.00561126
0.00561586
0.00562045
0.00562504
0.00562964
0.00563424
0.00563884
0.00564344
0.00564805
0.00565265
0.00565726
0.00566188
0.00566649
0.0056711
0.00567572
0.00568034
0.00568496
0.00568958
0.0056942
0.00569883
0.00570346
0.00570809
0.00571272
0.00571735
0.00572199
0.00572662
0.00573127
0.00573591
0.00574055
0.00574519
0.00574984
0.00575449
0.00575914
0.00576379
0.00576844
0.0057731
0.00577776
0.00578242
0.00578707
0.00579174
0.0057964
0.00580107
0.00580574
0.00581041
0.00581508
0.00581976
0.00582443
0.00582911
0.00583379
0.00583847
0.00584315
0.00584784
0.00585253
0.00585722
0.00586191
0.0058666
0.0058713
0.005876
0.0058807
0.0058854
0.0058901
0.0058948
0.00589951
0.00590422
0.00590893
0.00591364
0.00591836
0.00592308
0.00592779
0.00593251
0.00593723
0.00594196
0.00594668
0.00595141
0.00595614
0.00596087
0.0059656
0.00597034
0.00597508
0.00597981
0.00598455
0.00598929
0.00599404
0.00599879
0.00600353
0.00600828
0.00601303
0.00601779
0.00602254
0.0060273
0.00603206
0.00603682
0.00604158
0.00604635
0.00605111
0.00605588
0.00606065
0.00606542
0.0060702
0.00607497
0.00607975
0.00608453
0.00608931
0.0060941
0.00609888
0.00610367
0.00610846
0.00611325
0.00611804
0.00612284
0.00612763
0.00613243
0.00613723
0.00614204
0.00614684
0.00615165
0.00615646
0.00616126
0.00616608
0.00617089
0.00617571
0.00618052
0.00618534
0.00619017
0.00619499
0.00619981
0.00620464
0.00620947
0.0062143
0.00621913
0.00622396
0.0062288
0.00623364