/*--------------------------------*- C++ -*----------------------------------*\
| =========                 |                                                 |
| \\      /  F ield         | OpenFOAM: The Open Source CFD Toolbox           |
|  \\    /   O peration     | Version:  2206                                  |
|   \\  /    A nd           | Website:  www.openfoam.com                      |
|    \\/     M anipulation  |                                                 |
\*---------------------------------------------------------------------------*/
FoamFile
{
    version     2.0;
    format      ascii;
    arch        "LSB;label=32;scalar=64";
    class       volVectorField;
    location    "310";
    object      U;
}
// * * * * * * * * * * * * * * * * * * * * * * * * * * * * * * * * * * * * * //

dimensions      [0 1 -1 0 0 0 0];

internalField   nonuniform List<vector> 
100000
(
(-6.79869e-12 6.4352e-06 -1.15517e-12)
(-6.38973e-12 1.19733e-05 7.83999e-14)
(-8.97552e-12 2.1839e-05 1.42195e-13)
(-1.51599e-11 3.24361e-05 1.46771e-13)
(-1.83723e-11 4.20477e-05 8.89264e-14)
(-1.72465e-11 4.44832e-05 7.49131e-14)
(-2.08664e-11 5.43129e-05 1.41662e-13)
(-2.65105e-11 6.50469e-05 1.47419e-13)
(-3.135e-11 7.57635e-05 1.48919e-13)
(-3.59329e-11 8.54597e-05 8.33655e-14)
(-3.3976e-11 8.78305e-05 7.80351e-14)
(-3.83437e-11 9.76342e-05 1.42111e-13)
(-4.35453e-11 0.000108372 1.47734e-13)
(-4.87026e-11 0.000119098 1.46924e-13)
(-5.31632e-11 0.000128818 8.29165e-14)
(-5.11712e-11 0.000131176 7.82168e-14)
(-5.578e-11 0.000140968 1.43484e-13)
(-6.06018e-11 0.000151706 1.47204e-13)
(-6.63204e-11 0.000162435 1.46896e-13)
(-7.00529e-11 0.000172165 8.1742e-14)
(-6.89919e-11 0.00017452 7.93888e-14)
(-7.24561e-11 0.000184305 1.43169e-13)
(-7.86954e-11 0.00019505 1.4881e-13)
(-8.27884e-11 0.00020587 1.50389e-13)
(-8.90535e-11 0.000216607 1.47144e-13)
(-9.255e-11 0.000226345 8.29931e-14)
(-9.14192e-11 0.000228697 7.96658e-14)
(-9.51783e-11 0.000238477 1.45566e-13)
(-1.00881e-10 0.000249214 1.48544e-13)
(-1.05747e-10 0.000259946 1.47431e-13)
(-1.10395e-10 0.000269688 8.20192e-14)
(-1.0832e-10 0.000272039 8.02542e-14)
(-1.12867e-10 0.000281815 1.45103e-13)
(-1.17917e-10 0.000292553 1.48702e-13)
(-1.2332e-10 0.000303285 1.46824e-13)
(-1.27522e-10 0.00031303 8.20116e-14)
(-1.25822e-10 0.00031538 8.01118e-14)
(-1.30064e-10 0.000325155 1.45234e-13)
(-1.35366e-10 0.000335892 1.48431e-13)
(-1.40559e-10 0.000346625 1.46691e-13)
(-1.44932e-10 0.000356371 8.17422e-14)
(-1.43096e-10 0.000358721 8.02213e-14)
(-1.47453e-10 0.000368494 1.45154e-13)
(-1.52662e-10 0.000379231 1.4837e-13)
(-1.57927e-10 0.000389964 1.46465e-13)
(-1.62241e-10 0.000399712 8.16335e-14)
(-1.60455e-10 0.000402062 8.02229e-14)
(-1.64777e-10 0.000411833 1.45162e-13)
(-1.70009e-10 0.00042257 1.48261e-13)
(-1.7526e-10 0.000433304 1.46338e-13)
(-1.79578e-10 0.000443053 8.14994e-14)
(-1.77798e-10 0.000445403 8.02678e-14)
(-1.82107e-10 0.000455173 1.45127e-13)
(-1.87363e-10 0.00046591 1.48214e-13)
(-1.92579e-10 0.000476643 1.46189e-13)
(-1.96941e-10 0.000486393 8.14385e-14)
(-1.95107e-10 0.000488743 8.02495e-14)
(-1.99487e-10 0.000498513 1.45161e-13)
(-2.04654e-10 0.000509249 1.48101e-13)
(-2.09977e-10 0.000519983 1.46154e-13)
(-2.14207e-10 0.000529734 8.1282e-14)
(-2.12535e-10 0.000532084 8.03609e-14)
(-2.16722e-10 0.000541852 1.45037e-13)
(-2.22122e-10 0.000552589 1.48189e-13)
(-2.27164e-10 0.000563323 1.45903e-13)
(-2.31731e-10 0.000573074 8.14153e-14)
(-2.29656e-10 0.000575424 8.01356e-14)
(-2.34329e-10 0.000585192 1.45317e-13)
(-2.39145e-10 0.000595928 1.47802e-13)
(-2.44886e-10 0.000606662 1.46245e-13)
(-2.48613e-10 0.000616415 8.08605e-14)
(-2.47546e-10 0.000618764 8.07502e-14)
(-2.51012e-10 0.000628532 1.44625e-13)
(-2.57279e-10 0.000639275 1.49314e-13)
(-2.61363e-10 0.000650096 1.49824e-13)
(-2.67635e-10 0.000660837 1.45838e-13)
(-2.71114e-10 0.00067059 8.18818e-14)
(-2.7002e-10 0.00067294 8.02118e-14)
(-2.73762e-10 0.000682706 1.45872e-13)
(-2.79486e-10 0.000693443 1.48177e-13)
(-2.84328e-10 0.000704177 1.46487e-13)
(-2.88992e-10 0.00071393 8.11848e-14)
(-2.86915e-10 0.00071628 8.07325e-14)
(-2.91475e-10 0.000726046 1.45401e-13)
(-2.96519e-10 0.000736783 1.48486e-13)
(-3.01925e-10 0.000747517 1.46112e-13)
(-3.06119e-10 0.000757271 8.13838e-14)
(-3.04435e-10 0.00075962 8.05192e-14)
(-3.08669e-10 0.000769386 1.45544e-13)
(-3.13985e-10 0.000780122 1.48296e-13)
(-3.19162e-10 0.000790857 1.46163e-13)
(-3.23547e-10 0.000800611 8.12426e-14)
(-3.21703e-10 0.00080296 8.05917e-14)
(-3.26075e-10 0.000812726 1.45455e-13)
(-3.31272e-10 0.000823462 1.48302e-13)
(-3.36552e-10 0.000834197 1.46066e-13)
(-3.40844e-10 0.000843951 8.12292e-14)
(-3.39086e-10 0.0008463 8.05688e-14)
(-3.43378e-10 0.000856066 1.45441e-13)
(-3.48652e-10 0.000866802 1.48261e-13)
(-3.53854e-10 0.000877536 1.46006e-13)
(-3.58227e-10 0.000887291 8.12082e-14)
(-3.56384e-10 0.000889641 8.05394e-14)
(-3.60771e-10 0.000899406 1.45455e-13)
(-3.65937e-10 0.000910142 1.48179e-13)
(-3.71263e-10 0.000920876 1.46018e-13)
(-3.75491e-10 0.000930631 8.11003e-14)
(-3.73818e-10 0.000932981 8.06275e-14)
(-3.78005e-10 0.000942746 1.45324e-13)
(-3.83408e-10 0.000953482 1.48284e-13)
(-3.8845e-10 0.000964216 1.45808e-13)
(-3.93017e-10 0.000973971 8.12702e-14)
(-3.9094e-10 0.000976321 8.03825e-14)
(-3.95612e-10 0.000986085 1.45597e-13)
(-4.00434e-10 0.000996821 1.47905e-13)
(-4.06172e-10 0.00100756 1.46189e-13)
(-4.09903e-10 0.00101731 8.07376e-14)
(-4.0883e-10 0.00101966 8.09897e-14)
(-4.12299e-10 0.00102943 1.44886e-13)
(-4.18567e-10 0.00104017 1.49435e-13)
(-4.22652e-10 0.00105099 1.49749e-13)
(-4.28923e-10 0.00106173 1.45634e-13)
(-4.32401e-10 0.00107149 8.16865e-14)
(-4.3131e-10 0.00107384 8.03375e-14)
(-4.35051e-10 0.0010836 1.45957e-13)
(-4.40778e-10 0.00109434 1.48134e-13)
(-4.45617e-10 0.00110507 1.46313e-13)
(-4.50281e-10 0.00111483 8.1024e-14)
(-4.48205e-10 0.00111718 8.08515e-14)
(-4.52765e-10 0.00112694 1.45497e-13)
(-4.57811e-10 0.00113768 1.48462e-13)
(-4.63215e-10 0.00114841 1.45971e-13)
(-4.6741e-10 0.00115817 8.12474e-14)
(-4.65725e-10 0.00116052 8.06344e-14)
(-4.69962e-10 0.00117028 1.45649e-13)
(-4.75275e-10 0.00118102 1.48286e-13)
(-4.80457e-10 0.00119175 1.46054e-13)
(-4.84835e-10 0.00120151 8.11206e-14)
(-4.83e-10 0.00120386 8.07119e-14)
(-4.8736e-10 0.00121362 1.45556e-13)
(-4.92572e-10 0.00122436 1.48317e-13)
(-4.97835e-10 0.00123509 1.45966e-13)
(-5.02148e-10 0.00124485 8.11418e-14)
(-5.00365e-10 0.0012472 8.06655e-14)
(-5.04687e-10 0.00125696 1.45571e-13)
(-5.09926e-10 0.0012677 1.48258e-13)
(-5.15171e-10 0.00127843 1.45963e-13)
(-5.19492e-10 0.00128819 8.10908e-14)
(-5.17711e-10 0.00129054 8.06878e-14)
(-5.22022e-10 0.0013003 1.45523e-13)
(-5.27281e-10 0.00131104 1.48265e-13)
(-5.32496e-10 0.00132177 1.45896e-13)
(-5.36858e-10 0.00133153 8.11096e-14)
(-5.35023e-10 0.00133388 8.06367e-14)
(-5.39403e-10 0.00134364 1.45557e-13)
(-5.44577e-10 0.00135438 1.48181e-13)
(-5.49896e-10 0.00136511 1.45939e-13)
(-5.54129e-10 0.00137487 8.10055e-14)
(-5.52452e-10 0.00137722 8.07317e-14)
(-5.56643e-10 0.00138698 1.45421e-13)
(-5.62044e-10 0.00139772 1.48302e-13)
(-5.67088e-10 0.00140845 1.4574e-13)
(-5.71653e-10 0.00141821 8.11934e-14)
(-5.69577e-10 0.00142056 8.04794e-14)
(-5.74247e-10 0.00143032 1.45702e-13)
(-5.79073e-10 0.00144106 1.47927e-13)
(-5.84809e-10 0.00145179 1.46139e-13)
(-5.88541e-10 0.00146155 8.06664e-14)
(-5.87465e-10 0.0014639 8.10904e-14)
(-5.90937e-10 0.00147366 1.44986e-13)
(-5.97205e-10 0.0014844 1.4947e-13)
(-6.01289e-10 0.00149522 1.49688e-13)
(-6.0756e-10 0.00150596 1.45513e-13)
(-6.11037e-10 0.00151572 8.15777e-14)
(-6.09949e-10 0.00151807 8.0388e-14)
(-6.13688e-10 0.00152783 1.45976e-13)
(-6.19417e-10 0.00153857 1.4809e-13)
(-6.24253e-10 0.00154931 1.46202e-13)
(-6.28919e-10 0.00155906 8.09319e-14)
(-6.26843e-10 0.00156141 8.08983e-14)
(-6.31405e-10 0.00157117 1.45527e-13)
(-6.36449e-10 0.00158191 1.48425e-13)
(-6.41854e-10 0.00159264 1.45879e-13)
(-6.46046e-10 0.0016024 8.11609e-14)
(-6.44365e-10 0.00160475 8.06872e-14)
(-6.48598e-10 0.00161451 1.45678e-13)
(-6.53917e-10 0.00162525 1.48264e-13)
(-6.59091e-10 0.00163598 1.45967e-13)
(-6.63477e-10 0.00164574 8.10515e-14)
(-6.61633e-10 0.00164809 8.07557e-14)
(-6.66005e-10 0.00165785 1.45601e-13)
(-6.71204e-10 0.00166859 1.48291e-13)
(-6.76483e-10 0.00167932 1.45907e-13)
(-6.80775e-10 0.00168908 8.10617e-14)
(-6.79017e-10 0.00169143 8.07327e-14)
(-6.83309e-10 0.00170119 1.45594e-13)
(-6.88585e-10 0.00171193 1.48272e-13)
(-6.93786e-10 0.00172266 1.45875e-13)
(-6.98159e-10 0.00173242 8.10647e-14)
(-6.96315e-10 0.00173477 8.06995e-14)
(-7.00702e-10 0.00174453 1.45616e-13)
(-7.05871e-10 0.00175527 1.48205e-13)
(-7.11195e-10 0.001766 1.45915e-13)
(-7.15424e-10 0.00177576 8.09745e-14)
(-7.13749e-10 0.00177811 8.07873e-14)
(-7.17938e-10 0.00178787 1.45487e-13)
(-7.23342e-10 0.00179861 1.48326e-13)
(-7.28385e-10 0.00180934 1.45726e-13)
(-7.3295e-10 0.0018191 8.11641e-14)
(-7.30873e-10 0.00182145 8.05374e-14)
(-7.35544e-10 0.00183121 1.45768e-13)
(-7.4037e-10 0.00184195 1.47956e-13)
(-7.46106e-10 0.00185268 1.46131e-13)
(-7.49839e-10 0.00186244 8.06417e-14)
(-7.48761e-10 0.00186479 8.11483e-14)
(-7.52233e-10 0.00187455 1.45053e-13)
(-7.58502e-10 0.0018853 1.49503e-13)
(-7.62587e-10 0.00189612 1.49675e-13)
(-7.68857e-10 0.00190686 1.45467e-13)
(-7.72333e-10 0.00191662 8.1533e-14)
(-7.71246e-10 0.00191897 8.04212e-14)
(-7.74985e-10 0.00192873 1.46002e-13)
(-7.80714e-10 0.00193946 1.48083e-13)
(-7.8555e-10 0.0019502 1.46163e-13)
(-7.90216e-10 0.00195996 8.0892e-14)
(-7.8814e-10 0.00196231 8.0933e-14)
(-7.92701e-10 0.00197207 1.45556e-13)
(-7.97747e-10 0.0019828 1.48424e-13)
(-8.0315e-10 0.00199354 1.45843e-13)
(-8.07345e-10 0.0020033 8.11279e-14)
(-8.05661e-10 0.00200565 8.07193e-14)
(-8.09897e-10 0.00201541 1.45714e-13)
(-8.15212e-10 0.00202614 1.48263e-13)
(-8.20392e-10 0.00203688 1.45944e-13)
(-8.2477e-10 0.00204664 8.10152e-14)
(-8.22936e-10 0.00204899 8.07971e-14)
(-8.27296e-10 0.00205875 1.45629e-13)
(-8.32509e-10 0.00206948 1.48306e-13)
(-8.37771e-10 0.00208022 1.45874e-13)
(-8.42084e-10 0.00208998 8.10473e-14)
(-8.40301e-10 0.00209233 8.07527e-14)
(-8.44623e-10 0.00210209 1.4565e-13)
(-8.49863e-10 0.00211282 1.48259e-13)
(-8.55108e-10 0.00212356 1.45885e-13)
(-8.59428e-10 0.00213332 8.10079e-14)
(-8.57647e-10 0.00213567 8.0775e-14)
(-8.61959e-10 0.00214543 1.45608e-13)
(-8.67219e-10 0.00215616 1.48275e-13)
(-8.72433e-10 0.0021669 1.45833e-13)
(-8.76794e-10 0.00217666 8.10354e-14)
(-8.7496e-10 0.00217901 8.07253e-14)
(-8.7934e-10 0.00218877 1.45647e-13)
(-8.84515e-10 0.0021995 1.482e-13)
(-8.89833e-10 0.00221024 1.45887e-13)
(-8.94067e-10 0.00222 8.09409e-14)
(-8.92388e-10 0.00222235 8.08202e-14)
(-8.9658e-10 0.00223211 1.45515e-13)
(-9.01982e-10 0.00224284 1.48329e-13)
(-9.07026e-10 0.00225358 1.457e-13)
(-9.1159e-10 0.00226334 8.11366e-14)
(-9.09515e-10 0.00226569 8.05683e-14)
(-9.14184e-10 0.00227545 1.458e-13)
(-9.19011e-10 0.00228618 1.4796e-13)
(-9.24746e-10 0.00229692 1.46111e-13)
(-9.2848e-10 0.00230668 8.06155e-14)
(-9.27402e-10 0.00230903 8.11814e-14)
(-9.30874e-10 0.00231879 1.45085e-13)
(-9.37143e-10 0.00232953 1.49511e-13)
(-9.41228e-10 0.00234035 1.49651e-13)
(-9.47497e-10 0.00235109 1.45421e-13)
(-9.50974e-10 0.00236085 8.14926e-14)
(-9.49888e-10 0.0023632 8.04375e-14)
(-9.53626e-10 0.00237296 1.46006e-13)
(-9.59356e-10 0.0023837 1.48064e-13)
(-9.6419e-10 0.00239443 1.46119e-13)
(-9.68857e-10 0.00240419 8.08565e-14)
(-9.66781e-10 0.00240654 8.09486e-14)
(-9.71344e-10 0.0024163 1.45564e-13)
(-9.76387e-10 0.00242704 1.48407e-13)
(-9.81793e-10 0.00243777 1.45807e-13)
(-9.85984e-10 0.00244753 8.10929e-14)
(-9.84304e-10 0.00244988 8.07388e-14)
(-9.88536e-10 0.00245964 1.45721e-13)
(-9.93856e-10 0.00247038 1.48254e-13)
(-9.99029e-10 0.00248111 1.45906e-13)
(-1.00342e-09 0.00249087 8.09896e-14)
(-1.00157e-09 0.00249322 8.08093e-14)
(-1.00594e-09 0.00250298 1.45648e-13)
(-1.01114e-09 0.00251372 1.48288e-13)
(-1.01642e-09 0.00252445 1.45854e-13)
(-1.02071e-09 0.00253421 8.10068e-14)
(-1.01896e-09 0.00253656 8.07869e-14)
(-1.02325e-09 0.00254632 1.45646e-13)
(-1.02852e-09 0.00255706 1.48275e-13)
(-1.03373e-09 0.00256779 1.45831e-13)
(-1.0381e-09 0.00257755 8.10149e-14)
(-1.03625e-09 0.0025799 8.07555e-14)
(-1.04064e-09 0.00258966 1.45671e-13)
(-1.04581e-09 0.0026004 1.48214e-13)
(-1.05113e-09 0.00261113 1.45878e-13)
(-1.05536e-09 0.00262089 8.09306e-14)
(-1.05369e-09 0.00262324 8.08439e-14)
(-1.05788e-09 0.002633 1.45547e-13)
(-1.06328e-09 0.00264374 1.48341e-13)
(-1.06832e-09 0.00265447 1.45697e-13)
(-1.07289e-09 0.00266423 8.11248e-14)
(-1.07081e-09 0.00266658 8.05949e-14)
(-1.07548e-09 0.00267634 1.4583e-13)
(-1.08031e-09 0.00268708 1.47975e-13)
(-1.08604e-09 0.00269781 1.46109e-13)
(-1.08978e-09 0.00270757 8.06062e-14)
(-1.0887e-09 0.00270992 8.12078e-14)
(-1.09217e-09 0.00271968 1.45117e-13)
(-1.09844e-09 0.00273043 1.49528e-13)
(-1.10253e-09 0.00274125 1.49648e-13)
(-1.1088e-09 0.00275199 1.45402e-13)
(-1.11227e-09 0.00276175 8.14741e-14)
(-1.11119e-09 0.0027641 8.04534e-14)
(-1.11492e-09 0.00277386 1.46021e-13)
(-1.12065e-09 0.00278459 1.48063e-13)
(-1.12549e-09 0.00279533 1.46104e-13)
(-1.13016e-09 0.00280509 8.08392e-14)
(-1.12808e-09 0.00280744 8.09659e-14)
(-1.13264e-09 0.0028172 1.45579e-13)
(-1.13769e-09 0.00282793 1.48409e-13)
(-1.14309e-09 0.00283867 1.45792e-13)
(-1.14728e-09 0.00284843 8.10799e-14)
(-1.1456e-09 0.00285078 8.07534e-14)
(-1.14984e-09 0.00286054 1.45741e-13)
(-1.15515e-09 0.00287127 1.48253e-13)
(-1.16033e-09 0.00288201 1.45899e-13)
(-1.16471e-09 0.00289177 8.09711e-14)
(-1.16288e-09 0.00289412 8.0833e-14)
(-1.16724e-09 0.00290388 1.45659e-13)
(-1.17245e-09 0.00291461 1.48302e-13)
(-1.17771e-09 0.00292535 1.45835e-13)
(-1.18202e-09 0.00293511 8.10077e-14)
(-1.18024e-09 0.00293746 8.07894e-14)
(-1.18456e-09 0.00294722 1.45684e-13)
(-1.1898e-09 0.00295795 1.48259e-13)
(-1.19505e-09 0.00296869 1.45852e-13)
(-1.19937e-09 0.00297845 8.09717e-14)
(-1.19759e-09 0.0029808 8.08132e-14)
(-1.2019e-09 0.00299056 1.45645e-13)
(-1.20716e-09 0.00300129 1.48279e-13)
(-1.21237e-09 0.00301203 1.45805e-13)
(-1.21673e-09 0.00302179 8.10032e-14)
(-1.2149e-09 0.00302414 8.07642e-14)
(-1.21928e-09 0.0030339 1.45687e-13)
(-1.22446e-09 0.00304463 1.48208e-13)
(-1.22977e-09 0.00305537 1.45865e-13)
(-1.23401e-09 0.00306513 8.09116e-14)
(-1.23233e-09 0.00306748 8.08603e-14)
(-1.23652e-09 0.00307724 1.45558e-13)
(-1.24192e-09 0.00308797 1.48342e-13)
(-1.24697e-09 0.00309871 1.45681e-13)
(-1.25153e-09 0.00310847 8.1111e-14)
(-1.24945e-09 0.00311082 8.06087e-14)
(-1.25412e-09 0.00312058 1.45845e-13)
(-1.25895e-09 0.00313131 1.47975e-13)
(-1.26469e-09 0.00314205 1.46097e-13)
(-1.26842e-09 0.00315181 8.05916e-14)
(-1.26734e-09 0.00315416 8.1224e-14)
(-1.27081e-09 0.00316392 1.45131e-13)
(-1.27708e-09 0.00317466 1.49531e-13)
(-1.28117e-09 0.00318548 1.49633e-13)
(-1.28744e-09 0.00319622 1.45378e-13)
(-1.29091e-09 0.00320598 8.14522e-14)
(-1.28983e-09 0.00320833 8.04613e-14)
(-1.29357e-09 0.00321809 1.46021e-13)
(-1.2993e-09 0.00322883 1.48052e-13)
(-1.30413e-09 0.00323956 1.46079e-13)
(-1.3088e-09 0.00324932 8.08208e-14)
(-1.30672e-09 0.00325167 8.09724e-14)
(-1.31128e-09 0.00326143 1.45582e-13)
(-1.31633e-09 0.00327217 1.48398e-13)
(-1.32173e-09 0.0032829 1.45772e-13)
(-1.32592e-09 0.00329266 8.10596e-14)
(-1.32424e-09 0.00329501 8.07643e-14)
(-1.32848e-09 0.00330477 1.45741e-13)
(-1.3338e-09 0.00331551 1.48249e-13)
(-1.33897e-09 0.00332624 1.45875e-13)
(-1.34336e-09 0.003336 8.09595e-14)
(-1.34151e-09 0.00333835 8.08355e-14)
(-1.34588e-09 0.00334811 1.45672e-13)
(-1.35108e-09 0.00335885 1.48286e-13)
(-1.35636e-09 0.00336958 1.45828e-13)
(-1.36065e-09 0.00337934 8.0979e-14)
(-1.3589e-09 0.00338169 8.08144e-14)
(-1.36319e-09 0.00339145 1.45671e-13)
(-1.36847e-09 0.00340219 1.48277e-13)
(-1.37367e-09 0.00341292 1.45809e-13)
(-1.37804e-09 0.00342268 8.099e-14)
(-1.37619e-09 0.00342503 8.07836e-14)
(-1.38058e-09 0.00343479 1.45699e-13)
(-1.38575e-09 0.00344553 1.48219e-13)
(-1.39107e-09 0.00345626 1.4586e-13)
(-1.3953e-09 0.00346602 8.09078e-14)
(-1.39363e-09 0.00346837 8.08731e-14)
(-1.39782e-09 0.00347813 1.45577e-13)
(-1.40322e-09 0.00348887 1.48349e-13)
(-1.40826e-09 0.0034996 1.45681e-13)
(-1.41283e-09 0.00350936 8.11048e-14)
(-1.41075e-09 0.00351171 8.06245e-14)
(-1.41542e-09 0.00352147 1.45863e-13)
(-1.42025e-09 0.00353221 1.47985e-13)
(-1.42599e-09 0.00354294 1.46098e-13)
(-1.42972e-09 0.0035527 8.05873e-14)
(-1.42864e-09 0.00355505 8.12393e-14)
(-1.43211e-09 0.00356481 1.4515e-13)
(-1.43838e-09 0.00357555 1.49541e-13)
(-1.44247e-09 0.00358638 1.49633e-13)
(-1.44874e-09 0.00359712 1.45368e-13)
(-1.45221e-09 0.00360688 8.14426e-14)
(-1.45113e-09 0.00360923 8.04707e-14)
(-1.45487e-09 0.00361899 1.4603e-13)
(-1.4606e-09 0.00362972 1.48052e-13)
(-1.46543e-09 0.00364046 1.46072e-13)
(-1.4701e-09 0.00365022 8.08112e-14)
(-1.46802e-09 0.00365257 8.09834e-14)
(-1.47258e-09 0.00366233 1.45591e-13)
(-1.47763e-09 0.00367306 1.48401e-13)
(-1.48303e-09 0.0036838 1.45764e-13)
(-1.48722e-09 0.00369356 8.10536e-14)
(-1.48554e-09 0.00369591 8.07723e-14)
(-1.48978e-09 0.00370567 1.45755e-13)
(-1.49509e-09 0.0037164 1.48248e-13)
(-1.50027e-09 0.00372714 1.45874e-13)
(-1.50465e-09 0.0037369 8.09473e-14)
(-1.50282e-09 0.00373925 8.08524e-14)
(-1.50718e-09 0.00374901 1.45676e-13)
(-1.51239e-09 0.00375974 1.48299e-13)
(-1.51765e-09 0.00377048 1.45813e-13)
(-1.52196e-09 0.00378024 8.09856e-14)
(-1.52018e-09 0.00378259 8.081e-14)
(-1.5245e-09 0.00379235 1.45702e-13)
(-1.52975e-09 0.00380308 1.48259e-13)
(-1.53499e-09 0.00381382 1.45833e-13)
(-1.53931e-09 0.00382358 8.09518e-14)
(-1.53753e-09 0.00382593 8.08343e-14)
(-1.54184e-09 0.00383569 1.45666e-13)
(-1.5471e-09 0.00384642 1.48282e-13)
(-1.55231e-09 0.00385716 1.4579e-13)
(-1.55668e-09 0.00386692 8.09848e-14)
(-1.55484e-09 0.00386927 8.07863e-14)
(-1.55922e-09 0.00387903 1.45709e-13)
(-1.5644e-09 0.00388976 1.48213e-13)
(-1.56971e-09 0.0039005 1.45852e-13)
(-1.57395e-09 0.00391026 8.08953e-14)
(-1.57227e-09 0.00391261 8.08829e-14)
(-1.57646e-09 0.00392237 1.45582e-13)
(-1.58186e-09 0.0039331 1.48348e-13)
(-1.58691e-09 0.00394384 1.45671e-13)
(-1.59147e-09 0.0039536 8.10961e-14)
(-1.5894e-09 0.00395595 8.06321e-14)
(-1.59406e-09 0.00396571 1.45871e-13)
(-1.59889e-09 0.00397644 1.47984e-13)
(-1.60463e-09 0.00398718 1.4609e-13)
(-1.60836e-09 0.00399694 8.05781e-14)
(-1.60728e-09 0.00399929 8.12485e-14)
(-1.61076e-09 0.00400905 1.45157e-13)
(-1.61702e-09 0.00401979 1.49542e-13)
(-1.62111e-09 0.00403061 1.49623e-13)
(-1.62738e-09 0.00404135 1.45352e-13)
(-1.63085e-09 0.00405111 8.14289e-14)
(-1.62977e-09 0.00405346 8.0475e-14)
(-1.63351e-09 0.00406322 1.46029e-13)
(-1.63924e-09 0.00407396 1.48045e-13)
(-1.64407e-09 0.00408469 1.46056e-13)
(-1.64874e-09 0.00409445 8.07995e-14)
(-1.64666e-09 0.0040968 8.09867e-14)
(-1.65123e-09 0.00410656 1.45593e-13)
(-1.65627e-09 0.0041173 1.48393e-13)
(-1.66167e-09 0.00412803 1.45751e-13)
(-1.66586e-09 0.00413779 8.10401e-14)
(-1.66419e-09 0.00414014 8.07791e-14)
(-1.66842e-09 0.0041499 1.45754e-13)
(-1.67374e-09 0.00416064 1.48245e-13)
(-1.67891e-09 0.00417137 1.45857e-13)
(-1.6833e-09 0.00418113 8.09413e-14)
(-1.68145e-09 0.00418348 8.08514e-14)
(-1.68583e-09 0.00419324 1.45686e-13)
(-1.69103e-09 0.00420398 1.48285e-13)
(-1.6963e-09 0.00421471 1.45812e-13)
(-1.7006e-09 0.00422447 8.09627e-14)
(-1.69884e-09 0.00422682 8.08307e-14)
(-1.70313e-09 0.00423658 1.45687e-13)
(-1.70841e-09 0.00424732 1.48277e-13)
(-1.71361e-09 0.00425805 1.45796e-13)
(-1.71798e-09 0.00426781 8.09748e-14)
(-1.71614e-09 0.00427016 8.08009e-14)
(-1.72052e-09 0.00427992 1.45716e-13)
(-1.72569e-09 0.00429066 1.48222e-13)
(-1.73102e-09 0.00430139 1.45848e-13)
(-1.73525e-09 0.00431115 8.08942e-14)
(-1.73357e-09 0.0043135 8.08908e-14)
(-1.73776e-09 0.00432326 1.45595e-13)
(-1.74316e-09 0.004334 1.48353e-13)
(-1.74821e-09 0.00434473 1.45672e-13)
(-1.75277e-09 0.00435449 8.10923e-14)
(-1.75069e-09 0.00435684 8.06428e-14)
(-1.75536e-09 0.0043666 1.45883e-13)
(-1.76019e-09 0.00437734 1.47992e-13)
(-1.76593e-09 0.00438807 1.4609e-13)
(-1.76966e-09 0.00439783 8.05759e-14)
(-1.76858e-09 0.00440018 8.12585e-14)
(-1.77205e-09 0.00440994 1.45171e-13)
(-1.77832e-09 0.00442068 1.4955e-13)
(-1.78241e-09 0.00443151 1.49624e-13)
(-1.78868e-09 0.00444225 1.45347e-13)
(-1.79215e-09 0.00445201 8.14233e-14)
(-1.79107e-09 0.00445436 8.04813e-14)
(-1.79481e-09 0.00446412 1.46036e-13)
(-1.80054e-09 0.00447485 1.48045e-13)
(-1.80537e-09 0.00448559 1.46053e-13)
(-1.81004e-09 0.00449535 8.07935e-14)
(-1.80796e-09 0.0044977 8.09945e-14)
(-1.81252e-09 0.00450746 1.45599e-13)
(-1.81757e-09 0.00451819 1.48396e-13)
(-1.82297e-09 0.00452893 1.45746e-13)
(-1.82717e-09 0.00453869 8.10373e-14)
(-1.82548e-09 0.00454104 8.07839e-14)
(-1.82972e-09 0.0045508 1.45764e-13)
(-1.83504e-09 0.00456153 1.48245e-13)
(-1.84021e-09 0.00457227 1.45859e-13)
(-1.84459e-09 0.00458203 8.0932e-14)
(-1.84276e-09 0.00458438 8.08649e-14)
(-1.84712e-09 0.00459414 1.45687e-13)
(-1.85233e-09 0.00460487 1.48297e-13)
(-1.85759e-09 0.00461561 1.458e-13)
(-1.86191e-09 0.00462537 8.09718e-14)
(-1.86012e-09 0.00462772 8.08228e-14)
(-1.86445e-09 0.00463748 1.45715e-13)
(-1.86969e-09 0.00464821 1.48259e-13)
(-1.87493e-09 0.00465895 1.45821e-13)
(-1.87925e-09 0.00466871 8.09389e-14)
(-1.87747e-09 0.00467106 8.0848e-14)
(-1.88178e-09 0.00468082 1.45679e-13)
(-1.88704e-09 0.00469155 1.48283e-13)
(-1.89226e-09 0.00470229 1.45779e-13)
(-1.89662e-09 0.00471205 8.09733e-14)
(-1.89478e-09 0.0047144 8.08003e-14)
(-1.89916e-09 0.00472416 1.45724e-13)
(-1.90434e-09 0.00473489 1.48216e-13)
(-1.90966e-09 0.00474563 1.45843e-13)
(-1.91389e-09 0.00475539 8.08845e-14)
(-1.91221e-09 0.00475774 8.08977e-14)
(-1.9164e-09 0.0047675 1.45597e-13)
(-1.9218e-09 0.00477823 1.48353e-13)
(-1.92685e-09 0.00478897 1.45664e-13)
(-1.93141e-09 0.00479873 8.10867e-14)
(-1.92934e-09 0.00480108 8.0647e-14)
(-1.93401e-09 0.00481084 1.45888e-13)
(-1.93884e-09 0.00482157 1.4799e-13)
(-1.94457e-09 0.00483231 1.46085e-13)
(-1.9483e-09 0.00484207 8.05691e-14)
(-1.94722e-09 0.00484442 8.12646e-14)
(-1.9507e-09 0.00485418 1.45175e-13)
(-1.95697e-09 0.00486492 1.4955e-13)
(-1.96105e-09 0.00487574 1.49616e-13)
(-1.96732e-09 0.00488648 1.45336e-13)
(-1.9708e-09 0.00489624 8.14134e-14)
(-1.96971e-09 0.00489859 8.04841e-14)
(-1.97345e-09 0.00490835 1.46034e-13)
(-1.97918e-09 0.00491909 1.4804e-13)
(-1.98401e-09 0.00492982 1.46041e-13)
(-1.98868e-09 0.00493958 8.07858e-14)
(-1.9866e-09 0.00494193 8.09958e-14)
(-1.99117e-09 0.00495169 1.456e-13)
(-1.99621e-09 0.00496243 1.48389e-13)
(-2.00162e-09 0.00497316 1.45738e-13)
(-2.00581e-09 0.00498292 8.1027e-14)
(-2.00413e-09 0.00498527 8.07892e-14)
(-2.00836e-09 0.00499503 1.45762e-13)
(-2.01368e-09 0.00500577 1.48244e-13)
(-2.01885e-09 0.0050165 1.45845e-13)
(-2.02324e-09 0.00502626 8.09295e-14)
(-2.0214e-09 0.00502861 8.08617e-14)
(-2.02577e-09 0.00503837 1.45695e-13)
(-2.03097e-09 0.00504911 1.48285e-13)
(-2.03625e-09 0.00505984 1.45802e-13)
(-2.04054e-09 0.0050696 8.09515e-14)
(-2.03878e-09 0.00507195 8.08418e-14)
(-2.04307e-09 0.00508171 1.45697e-13)
(-2.04835e-09 0.00509245 1.48278e-13)
(-2.05355e-09 0.00510318 1.45786e-13)
(-2.05792e-09 0.00511294 8.09648e-14)
(-2.05608e-09 0.00511529 8.08122e-14)
(-2.06046e-09 0.00512505 1.45728e-13)
(-2.06563e-09 0.00513579 1.48224e-13)
(-2.07096e-09 0.00514652 1.45841e-13)
(-2.07519e-09 0.00515628 8.08848e-14)
(-2.07351e-09 0.00515863 8.09028e-14)
(-2.0777e-09 0.00516839 1.45608e-13)
(-2.08311e-09 0.00517913 1.48356e-13)
(-2.08815e-09 0.00518986 1.45666e-13)
(-2.09271e-09 0.00519962 8.10841e-14)
(-2.09064e-09 0.00520197 8.0655e-14)
(-2.09531e-09 0.00521173 1.45897e-13)
(-2.10013e-09 0.00522247 1.47996e-13)
(-2.10587e-09 0.0052332 1.46086e-13)
(-2.1096e-09 0.00524296 8.0568e-14)
(-2.10852e-09 0.00524531 8.12717e-14)
(-2.112e-09 0.00525507 1.45184e-13)
(-2.11827e-09 0.00526581 1.49555e-13)
(-2.12235e-09 0.00527663 1.49618e-13)
(-2.12862e-09 0.00528738 1.45333e-13)
(-2.1321e-09 0.00529714 8.141e-14)
(-2.13101e-09 0.00529948 8.04887e-14)
(-2.13475e-09 0.00530925 1.4604e-13)
(-2.14048e-09 0.00531998 1.48041e-13)
(-2.14531e-09 0.00533072 1.46039e-13)
(-2.14998e-09 0.00534048 8.07817e-14)
(-2.1479e-09 0.00534282 8.10018e-14)
(-2.15247e-09 0.00535259 1.45604e-13)
(-2.15751e-09 0.00536332 1.48392e-13)
(-2.16291e-09 0.00537406 1.45734e-13)
(-2.16711e-09 0.00538382 8.1026e-14)
(-2.16543e-09 0.00538616 8.07921e-14)
(-2.16966e-09 0.00539593 1.45771e-13)
(-2.17498e-09 0.00540666 1.48242e-13)
(-2.18016e-09 0.0054174 1.45848e-13)
(-2.18453e-09 0.00542716 8.09217e-14)
(-2.1827e-09 0.0054295 8.08733e-14)
(-2.18706e-09 0.00543927 1.45694e-13)
(-2.19227e-09 0.00545 1.48296e-13)
(-2.19754e-09 0.00546074 1.4579e-13)
(-2.20185e-09 0.0054705 8.0962e-14)
(-2.20007e-09 0.00547284 8.08319e-14)
(-2.20439e-09 0.00548261 1.45723e-13)
(-2.20963e-09 0.00549334 1.48259e-13)
(-2.21487e-09 0.00550408 1.45813e-13)
(-2.21919e-09 0.00551384 8.09301e-14)
(-2.21741e-09 0.00551618 8.08572e-14)
(-2.22172e-09 0.00552595 1.45688e-13)
(-2.22698e-09 0.00553668 1.48284e-13)
(-2.2322e-09 0.00554742 1.45773e-13)
(-2.23656e-09 0.00555718 8.0965e-14)
(-2.23472e-09 0.00555952 8.08103e-14)
(-2.2391e-09 0.00556929 1.45734e-13)
(-2.24428e-09 0.00558002 1.48218e-13)
(-2.2496e-09 0.00559076 1.45837e-13)
(-2.25383e-09 0.00560052 8.08772e-14)
(-2.25215e-09 0.00560286 8.09078e-14)
(-2.25634e-09 0.00561263 1.45608e-13)
(-2.26175e-09 0.00562336 1.48356e-13)
(-2.26679e-09 0.0056341 1.45659e-13)
(-2.27135e-09 0.00564386 8.10799e-14)
(-2.26928e-09 0.0056462 8.06577e-14)
(-2.27395e-09 0.00565597 1.459e-13)
(-2.27878e-09 0.0056667 1.47994e-13)
(-2.28451e-09 0.00567744 1.46081e-13)
(-2.28825e-09 0.0056872 8.0563e-14)
(-2.28717e-09 0.00568954 8.12757e-14)
(-2.29064e-09 0.00569931 1.45187e-13)
(-2.29691e-09 0.00571005 1.49555e-13)
(-2.30099e-09 0.00572087 1.49612e-13)
(-2.30726e-09 0.00573161 1.45324e-13)
(-2.31074e-09 0.00574137 8.14028e-14)
(-2.30965e-09 0.00574372 8.04903e-14)
(-2.31339e-09 0.00575348 1.46038e-13)
(-2.31912e-09 0.00576422 1.48037e-13)
(-2.32395e-09 0.00577495 1.4603e-13)
(-2.32862e-09 0.00578471 8.07758e-14)
(-2.32655e-09 0.00578706 8.10026e-14)
(-2.33111e-09 0.00579682 1.45604e-13)
(-2.33615e-09 0.00580756 1.48387e-13)
(-2.34156e-09 0.00581829 1.45728e-13)
(-2.34575e-09 0.00582805 8.1018e-14)
(-2.34407e-09 0.0058304 8.0796e-14)
(-2.3483e-09 0.00584016 1.45768e-13)
(-2.35362e-09 0.0058509 1.48242e-13)
(-2.35879e-09 0.00586163 1.45837e-13)
(-2.36318e-09 0.00587139 8.09208e-14)
(-2.36134e-09 0.00587374 8.08693e-14)
(-2.36571e-09 0.0058835 1.45701e-13)
(-2.37091e-09 0.00589424 1.48284e-13)
(-2.37619e-09 0.00590497 1.45794e-13)
(-2.38048e-09 0.00591473 8.09438e-14)
(-2.37872e-09 0.00591708 8.08494e-14)
(-2.38301e-09 0.00592684 1.45705e-13)
(-2.38829e-09 0.00593758 1.48279e-13)
(-2.39349e-09 0.00594831 1.4578e-13)
(-2.39786e-09 0.00595807 8.09574e-14)
(-2.39602e-09 0.00596042 8.08205e-14)
(-2.40041e-09 0.00597018 1.45736e-13)
(-2.40558e-09 0.00598092 1.48225e-13)
(-2.4109e-09 0.00599165 1.45835e-13)
(-2.41513e-09 0.00600141 8.08783e-14)
(-2.41345e-09 0.00600376 8.09112e-14)
(-2.41764e-09 0.00601352 1.45617e-13)
(-2.42305e-09 0.00602426 1.48359e-13)
(-2.42809e-09 0.00603499 1.45661e-13)
(-2.43265e-09 0.00604475 8.10779e-14)
(-2.43058e-09 0.0060471 8.0664e-14)
(-2.43525e-09 0.00605686 1.45906e-13)
(-2.44008e-09 0.0060676 1.47999e-13)
(-2.44581e-09 0.00607833 1.46082e-13)
(-2.44955e-09 0.00608809 8.05625e-14)
(-2.44846e-09 0.00609044 8.12811e-14)
(-2.45194e-09 0.0061002 1.45195e-13)
(-2.45821e-09 0.00611094 1.49559e-13)
(-2.46229e-09 0.00612176 1.49613e-13)
(-2.46856e-09 0.00613251 1.45322e-13)
(-2.47204e-09 0.00614226 8.14005e-14)
(-2.47095e-09 0.00614461 8.04938e-14)
(-2.47469e-09 0.00615437 1.46043e-13)
(-2.48042e-09 0.00616511 1.48037e-13)
(-2.48525e-09 0.00617585 1.46029e-13)
(-2.48992e-09 0.0061856 8.07728e-14)
(-2.48785e-09 0.00618795 8.10075e-14)
(-2.49241e-09 0.00619771 1.45608e-13)
(-2.49745e-09 0.00620845 1.4839e-13)
(-2.50286e-09 0.00621919 1.45725e-13)
(-2.50705e-09 0.00622894 8.10179e-14)
(-2.50537e-09 0.00623129 8.07978e-14)
(-2.5096e-09 0.00624105 1.45775e-13)
(-2.51492e-09 0.00625179 1.48241e-13)
(-2.5201e-09 0.00626253 1.4584e-13)
(-2.52448e-09 0.00627228 8.0914e-14)
(-2.52264e-09 0.00627463 8.08797e-14)
(-2.527e-09 0.00628439 1.45699e-13)
(-2.53222e-09 0.00629513 1.48296e-13)
(-2.53748e-09 0.00630587 1.45783e-13)
(-2.54179e-09 0.00631562 8.09551e-14)
(-2.54001e-09 0.00631797 8.08383e-14)
(-2.54433e-09 0.00632773 1.45729e-13)
(-2.54957e-09 0.00633847 1.48259e-13)
(-2.55481e-09 0.00634921 1.45807e-13)
(-2.55913e-09 0.00635896 8.09235e-14)
(-2.55735e-09 0.00636131 8.08643e-14)
(-2.56167e-09 0.00637107 1.45695e-13)
(-2.56693e-09 0.00638181 1.48285e-13)
(-2.57214e-09 0.00639255 1.45767e-13)
(-2.5765e-09 0.0064023 8.09592e-14)
(-2.57467e-09 0.00640465 8.08174e-14)
(-2.57905e-09 0.00641441 1.45741e-13)
(-2.58422e-09 0.00642515 1.4822e-13)
(-2.58954e-09 0.00643589 1.45833e-13)
(-2.59377e-09 0.00644564 8.08716e-14)
(-2.59209e-09 0.00644799 8.09156e-14)
(-2.59629e-09 0.00645775 1.45616e-13)
(-2.60169e-09 0.00646849 1.48358e-13)
(-2.60673e-09 0.00647923 1.45656e-13)
(-2.6113e-09 0.00648898 8.10751e-14)
(-2.60922e-09 0.00649133 8.06654e-14)
(-2.61389e-09 0.00650109 1.45909e-13)
(-2.61872e-09 0.00651183 1.47997e-13)
(-2.62445e-09 0.00652257 1.46079e-13)
(-2.62819e-09 0.00653232 8.05582e-14)
(-2.62711e-09 0.00653467 8.12842e-14)
(-2.63058e-09 0.00654444 1.45196e-13)
(-2.63685e-09 0.00655518 1.49559e-13)
(-2.64093e-09 0.006566 1.49608e-13)
(-2.6472e-09 0.00657674 1.45316e-13)
(-2.65068e-09 0.0065865 8.13946e-14)
(-2.6496e-09 0.00658885 8.04953e-14)
(-2.65333e-09 0.00659861 1.46041e-13)
(-2.65906e-09 0.00660934 1.48034e-13)
(-2.6639e-09 0.00662008 1.46022e-13)
(-2.66856e-09 0.00662984 8.07687e-14)
(-2.66649e-09 0.00663219 8.10073e-14)
(-2.67105e-09 0.00664195 1.45608e-13)
(-2.67609e-09 0.00665268 1.48385e-13)
(-2.6815e-09 0.00666342 1.45721e-13)
(-2.68569e-09 0.00667318 8.1011e-14)
(-2.68401e-09 0.00667553 8.08015e-14)
(-2.68824e-09 0.00668529 1.45772e-13)
(-2.69356e-09 0.00669602 1.48241e-13)