/*--------------------------------*- C++ -*----------------------------------*\
| =========                 |                                                 |
| \\      /  F ield         | OpenFOAM: The Open Source CFD Toolbox           |
|  \\    /   O peration     | Version:  2206                                  |
|   \\  /    A nd           | Website:  www.openfoam.com                      |
|    \\/     M anipulation  |                                                 |
\*---------------------------------------------------------------------------*/
FoamFile
{
    version     2.0;
    format      ascii;
    arch        "LSB;label=32;scalar=64";
    class       volScalarField;
    location    "80";
    object      p;
}
// * * * * * * * * * * * * * * * * * * * * * * * * * * * * * * * * * * * * * //

dimensions      [0 2 -2 0 0 0 0];

internalField   nonuniform List<scalar> 
50000
(
-3.26984e-10
-1.88564e-10
3.28215e-09
9.10653e-09
1.62059e-08
2.5539e-08
3.71729e-08
5.07227e-08
6.61348e-08
8.36438e-08
1.02992e-07
1.24421e-07
1.47682e-07
1.72993e-07
2.00188e-07
2.29393e-07
2.60491e-07
2.93597e-07
3.28603e-07
3.65604e-07
4.04516e-07
4.45412e-07
4.88228e-07
5.3302e-07
5.79738e-07
6.28426e-07
6.79046e-07
7.3163e-07
7.8615e-07
8.42631e-07
9.0105e-07
9.61429e-07
1.02375e-06
1.08802e-06
1.15424e-06
1.22241e-06
1.29252e-06
1.36459e-06
1.43861e-06
1.51457e-06
1.59248e-06
1.67234e-06
1.75415e-06
1.83791e-06
1.92362e-06
2.01127e-06
2.10088e-06
2.19243e-06
2.28593e-06
2.38138e-06
2.47878e-06
2.57812e-06
2.67942e-06
2.78266e-06
2.88785e-06
2.99499e-06
3.10408e-06
3.21512e-06
3.3281e-06
3.44304e-06
3.55992e-06
3.67875e-06
3.79953e-06
3.92226e-06
4.04693e-06
4.17356e-06
4.30213e-06
4.43265e-06
4.56512e-06
4.69954e-06
4.8359e-06
4.97422e-06
5.11448e-06
5.25669e-06
5.40085e-06
5.54696e-06
5.69502e-06
5.84502e-06
5.99697e-06
6.15087e-06
6.30672e-06
6.46452e-06
6.62427e-06
6.78596e-06
6.9496e-06
7.1152e-06
7.28273e-06
7.45222e-06
7.62366e-06
7.79704e-06
7.97238e-06
8.14966e-06
8.32888e-06
8.51006e-06
8.69319e-06
8.87826e-06
9.06528e-06
9.25425e-06
9.44517e-06
9.63804e-06
9.83286e-06
1.00296e-05
1.02283e-05
1.0429e-05
1.06316e-05
1.08362e-05
1.10427e-05
1.12511e-05
1.14615e-05
1.16739e-05
1.18882e-05
1.21044e-05
1.23226e-05
1.25427e-05
1.27648e-05
1.29889e-05
1.32149e-05
1.34428e-05
1.36727e-05
1.39045e-05
1.41383e-05
1.4374e-05
1.46117e-05
1.48513e-05
1.50929e-05
1.53364e-05
1.55819e-05
1.58293e-05
1.60787e-05
1.633e-05
1.65833e-05
1.68385e-05
1.70956e-05
1.73547e-05
1.76158e-05
1.78788e-05
1.81438e-05
1.84107e-05
1.86795e-05
1.89503e-05
1.9223e-05
1.94977e-05
1.97744e-05
2.0053e-05
2.03335e-05
2.0616e-05
2.09004e-05
2.11868e-05
2.14752e-05
2.17654e-05
2.20577e-05
2.23518e-05
2.2648e-05
2.2946e-05
2.32461e-05
2.3548e-05
2.38519e-05
2.41578e-05
2.44656e-05
2.47754e-05
2.50871e-05
2.54008e-05
2.57164e-05
2.60339e-05
2.63534e-05
2.66749e-05
2.69983e-05
2.73236e-05
2.76509e-05
2.79802e-05
2.83114e-05
2.86445e-05
2.89796e-05
2.93166e-05
2.96556e-05
2.99965e-05
3.03394e-05
3.06843e-05
3.1031e-05
3.13798e-05
3.17304e-05
3.20831e-05
3.24376e-05
3.27942e-05
3.31526e-05
3.3513e-05
3.38754e-05
3.42397e-05
3.4606e-05
3.49742e-05
3.53443e-05
3.57164e-05
3.60905e-05
3.64665e-05
3.68445e-05
3.72244e-05
3.76062e-05
3.799e-05
3.83757e-05
3.87634e-05
3.91531e-05
3.95447e-05
3.99382e-05
4.03337e-05
4.07311e-05
4.11305e-05
4.15318e-05
4.19351e-05
4.23403e-05
4.27475e-05
4.31566e-05
4.35677e-05
4.39807e-05
4.43957e-05
4.48126e-05
4.52315e-05
4.56523e-05
4.6075e-05
4.64997e-05
4.69264e-05
4.7355e-05
4.77856e-05
4.82181e-05
4.86525e-05
4.90889e-05
4.95272e-05
4.99675e-05
5.04098e-05
5.0854e-05
5.13001e-05
5.17482e-05
5.21982e-05
5.26502e-05
5.31041e-05
5.356e-05
5.40179e-05
5.44776e-05
5.49394e-05
5.5403e-05
5.58686e-05
5.63362e-05
5.68057e-05
5.72772e-05
5.77506e-05
5.8226e-05
5.87033e-05
5.91825e-05
5.96638e-05
6.01469e-05
6.0632e-05
6.11191e-05
6.16081e-05
6.2099e-05
6.25919e-05
6.30867e-05
6.35835e-05
6.40823e-05
6.4583e-05
6.50856e-05
6.55902e-05
6.60967e-05
6.66052e-05
6.71156e-05
6.7628e-05
6.81423e-05
6.86586e-05
6.91768e-05
6.9697e-05
7.02191e-05
7.07432e-05
7.12692e-05
7.17972e-05
7.23271e-05
7.28589e-05
7.33928e-05
7.39285e-05
7.44662e-05
7.50059e-05
7.55475e-05
7.6091e-05
7.66365e-05
7.7184e-05
7.77334e-05
7.82847e-05
7.8838e-05
7.93932e-05
7.99504e-05
8.05096e-05
8.10706e-05
8.16337e-05
8.21987e-05
8.27656e-05
8.33345e-05
8.39053e-05
8.44781e-05
8.50528e-05
8.56294e-05
8.62081e-05
8.67886e-05
8.73711e-05
8.79556e-05
8.8542e-05
8.91304e-05
8.97207e-05
9.03129e-05
9.09071e-05
9.15033e-05
9.21014e-05
9.27014e-05
9.33034e-05
9.39074e-05
9.45133e-05
9.51211e-05
9.57309e-05
9.63426e-05
9.69563e-05
9.7572e-05
9.81895e-05
9.88091e-05
9.94306e-05
0.000100054
0.000100679
0.000101307
0.000101936
0.000102567
0.0001032
0.000103835
0.000104473
0.000105112
0.000105752
0.000106395
0.00010704
0.000107687
0.000108336
0.000108987
0.000109639
0.000110294
0.00011095
0.000111609
0.000112269
0.000112932
0.000113596
0.000114262
0.000114931
0.000115601
0.000116273
0.000116947
0.000117623
0.000118301
0.000118981
0.000119663
0.000120347
0.000121032
0.00012172
0.00012241
0.000123101
0.000123795
0.00012449
0.000125188
0.000125887
0.000126589
0.000127292
0.000127997
0.000128704
0.000129413
0.000130125
0.000130838
0.000131553
0.00013227
0.000132988
0.000133709
0.000134432
0.000135157
0.000135884
0.000136612
0.000137343
0.000138075
0.00013881
0.000139546
0.000140285
0.000141025
0.000141767
0.000142511
0.000143257
0.000144006
0.000144756
0.000145508
0.000146262
0.000147018
0.000147775
0.000148535
0.000149297
0.000150061
0.000150826
0.000151594
0.000152363
0.000153135
0.000153908
0.000154684
0.000155461
0.00015624
0.000157022
0.000157805
0.00015859
0.000159377
0.000160166
0.000160957
0.00016175
0.000162545
0.000163342
0.00016414
0.000164941
0.000165744
0.000166548
0.000167355
0.000168163
0.000168974
0.000169786
0.000170601
0.000171417
0.000172235
0.000173055
0.000173878
0.000174702
0.000175528
0.000176356
0.000177186
0.000178017
0.000178851
0.000179687
0.000180525
0.000181364
0.000182206
0.00018305
0.000183895
0.000184743
0.000185592
0.000186443
0.000187297
0.000188152
0.000189009
0.000189868
0.00019073
0.000191593
0.000192458
0.000193325
0.000194193
0.000195064
0.000195937
0.000196812
0.000197689
0.000198567
0.000199448
0.00020033
0.000201215
0.000202101
0.00020299
0.00020388
0.000204772
0.000205666
0.000206563
0.000207461
0.000208361
0.000209263
0.000210167
0.000211073
0.000211981
0.00021289
0.000213802
0.000214716
0.000215632
0.000216549
0.000217469
0.00021839
0.000219314
0.000220239
0.000221166
0.000222096
0.000223027
0.00022396
0.000224895
0.000225832
0.000226771
0.000227712
0.000228655
0.0002296
0.000230547
0.000231496
0.000232447
0.000233399
0.000234354
0.00023531
0.000236269
0.000237229
0.000238192
0.000239156
0.000240123
0.000241091
0.000242061
0.000243033
0.000244007
0.000244983
0.000245961
0.000246941
0.000247923
0.000248907
0.000249893
0.000250881
0.00025187
0.000252862
0.000253855
0.000254851
0.000255849
0.000256848
0.000257849
0.000258853
0.000259858
0.000260865
0.000261874
0.000262885
0.000263899
0.000264914
0.000265931
0.000266949
0.00026797
0.000268993
0.000270018
0.000271045
0.000272073
0.000273104
0.000274136
0.000275171
0.000276207
0.000277246
0.000278286
0.000279328
0.000280373
0.000281419
0.000282467
0.000283517
0.000284569
0.000285623
0.000286679
0.000287737
0.000288797
0.000289858
0.000290922
0.000291988
0.000293055
0.000294125
0.000295197
0.00029627
0.000297345
0.000298423
0.000299502
0.000300583
0.000301667
0.000302752
0.000303839
0.000304928
0.000306019
0.000307112
0.000308207
0.000309304
0.000310402
0.000311503
0.000312606
0.00031371
0.000314817
0.000315926
0.000317036
0.000318148
0.000319263
0.000320379
0.000321497
0.000322618
0.00032374
0.000324864
0.00032599
0.000327118
0.000328248
0.00032938
0.000330514
0.00033165
0.000332787
0.000333927
0.000335069
0.000336212
0.000337358
0.000338505
0.000339655
0.000340806
0.00034196
0.000343115
0.000344272
0.000345431
0.000346592
0.000347755
0.00034892
0.000350087
0.000351256
0.000352427
0.0003536
0.000354775
0.000355952
0.00035713
0.000358311
0.000359493
0.000360678
0.000361864
0.000363053
0.000364243
0.000365435
0.00036663
0.000367826
0.000369024
0.000370224
0.000371426
0.00037263
0.000373836
0.000375044
0.000376254
0.000377466
0.000378679
0.000379895
0.000381113
0.000382332
0.000383554
0.000384777
0.000386003
0.00038723
0.000388459
0.000389691
0.000390924
0.000392159
0.000393396
0.000394635
0.000395876
0.000397119
0.000398364
0.000399611
0.00040086
0.000402111
0.000403363
0.000404618
0.000405875
0.000407133
0.000408394
0.000409656
0.00041092
0.000412187
0.000413455
0.000414725
0.000415997
0.000417272
0.000418548
0.000419826
0.000421106
0.000422388
0.000423671
0.000424957
0.000426245
0.000427535
0.000428826
0.00043012
0.000431416
0.000432713
0.000434013
0.000435314
0.000436617
0.000437923
0.00043923
0.000440539
0.00044185
0.000443163
0.000444478
0.000445795
0.000447114
0.000448435
0.000449758
0.000451083
0.00045241
0.000453738
0.000455069
0.000456401
0.000457736
0.000459072
0.000460411
0.000461751
0.000463094
0.000464438
0.000465784
0.000467132
0.000468482
0.000469834
0.000471188
0.000472544
0.000473902
0.000475262
0.000476624
0.000477988
0.000479353
0.000480721
0.000482091
0.000483462
0.000484836
0.000486211
0.000487588
0.000488968
0.000490349
0.000491732
0.000493117
0.000494505
0.000495894
0.000497285
0.000498678
0.000500073
0.000501469
0.000502868
0.000504269
0.000505672
0.000507076
0.000508483
0.000509892
0.000511302
0.000512715
0.000514129
0.000515545
0.000516964
0.000518384
0.000519806
0.00052123
0.000522656
0.000524084
0.000525514
0.000526946
0.00052838
0.000529816
0.000531254
0.000532693
0.000534135
0.000535579
0.000537024
0.000538472
0.000539921
0.000541373
0.000542826
0.000544281
0.000545739
0.000547198
0.000548659
0.000550122
0.000551587
0.000553054
0.000554523
0.000555994
0.000557467
0.000558942
0.000560418
0.000561897
0.000563378
0.00056486
0.000566345
0.000567831
0.00056932
0.00057081
0.000572303
0.000573797
0.000575293
0.000576791
0.000578291
0.000579793
0.000581297
0.000582803
0.000584311
0.000585821
0.000587333
0.000588847
0.000590363
0.00059188
0.0005934
0.000594921
0.000596445
0.00059797
0.000599498
0.000601027
0.000602558
0.000604092
0.000605627
0.000607164
0.000608703
0.000610244
0.000611787
0.000613332
0.000614879
0.000616428
0.000617978
0.000619531
0.000621086
0.000622642
0.000624201
0.000625762
0.000627324
0.000628888
0.000630455
0.000632023
0.000633593
0.000635166
0.00063674
0.000638316
0.000639894
0.000641474
0.000643056
0.00064464
0.000646226
0.000647813
0.000649403
0.000650995
0.000652588
0.000654184
0.000655782
0.000657381
0.000658982
0.000660586
0.000662191
0.000663798
0.000665408
0.000667019
0.000668632
0.000670247
0.000671864
0.000673483
0.000675104
0.000676727
0.000678352
0.000679978
0.000681607
0.000683238
0.00068487
0.000686505
0.000688141
0.00068978
0.00069142
0.000693063
0.000694707
0.000696353
0.000698001
0.000699651
0.000701304
0.000702958
0.000704614
0.000706271
0.000707931
0.000709593
0.000711257
0.000712923
0.00071459
0.00071626
0.000717932
0.000719605
0.000721281
0.000722958
0.000724637
0.000726319
0.000728002
0.000729687
0.000731374
0.000733063
0.000734754
0.000736447
0.000738142
0.000739839
0.000741538
0.000743239
0.000744942
0.000746646
0.000748353
0.000750061
0.000751772
0.000753484
0.000755199
0.000756915
0.000758634
0.000760354
0.000762076
0.0007638
0.000765526
0.000767254
0.000768984
0.000770716
0.00077245
0.000774186
0.000775924
0.000777664
0.000779405
0.000781149
0.000782895
0.000784642
0.000786392
0.000788143
0.000789897
0.000791652
0.000793409
0.000795168
0.00079693
0.000798693
0.000800458
0.000802225
0.000803994
0.000805765
0.000807538
0.000809312
0.000811089
0.000812868
0.000814649
0.000816431
0.000818216
0.000820002
0.000821791
0.000823581
0.000825374
0.000827168
0.000828964
0.000830762
0.000832562
0.000834365
0.000836169
0.000837975
0.000839783
0.000841592
0.000843404
0.000845218
0.000847034
0.000848851
0.000850671
0.000852493
0.000854316
0.000856142
0.000857969
0.000859799
0.00086163
0.000863463
0.000865298
0.000867135
0.000868975
0.000870816
0.000872659
0.000874504
0.000876351
0.000878199
0.00088005
0.000881903
0.000883758
0.000885614
0.000887473
0.000889333
0.000891196
0.00089306
0.000894927
0.000896795
0.000898665
0.000900538
0.000902412
0.000904288
0.000906166
0.000908046
0.000909928
0.000911812
0.000913698
0.000915586
0.000917475
0.000919367
0.000921261
0.000923156
0.000925054
0.000926953
0.000928855
0.000930758
0.000932664
0.000934571
0.00093648
0.000938391
0.000940305
0.00094222
0.000944137
0.000946056
0.000947977
0.000949899
0.000951824
0.000953751
0.00095568
0.000957611
0.000959543
0.000961478
0.000963414
0.000965353
0.000967293
0.000969236
0.00097118
0.000973126
0.000975074
0.000977024
0.000978977
0.000980931
0.000982887
0.000984845
0.000986805
0.000988766
0.00099073
0.000992696
0.000994664
0.000996633
0.000998605
0.00100058
0.00100255
0.00100453
0.00100651
0.00100849
0.00101048
0.00101246
0.00101445
0.00101644
0.00101843
0.00102042
0.00102242
0.00102441
0.00102641
0.00102841
0.00103042
0.00103242
0.00103443
0.00103644
0.00103845
0.00104046
0.00104247
0.00104449
0.00104651
0.00104853
0.00105055
0.00105257
0.0010546
0.00105663
0.00105866
0.00106069
0.00106272
0.00106476
0.0010668
0.00106884
0.00107088
0.00107292
0.00107497
0.00107702
0.00107907
0.00108112
0.00108317
0.00108523
0.00108728
0.00108934
0.0010914
0.00109347
0.00109553
0.0010976
0.00109967
0.00110174
0.00110381
0.00110589
0.00110796
0.00111004
0.00111212
0.00111421
0.00111629
0.00111838
0.00112047
0.00112256
0.00112465
0.00112674
0.00112884
0.00113094
0.00113304
0.00113514
0.00113724
0.00113935
0.00114146
0.00114357
0.00114568
0.00114779
0.00114991
0.00115203
0.00115415
0.00115627
0.00115839
0.00116052
0.00116264
0.00116477
0.00116691
0.00116904
0.00117117
0.00117331
0.00117545
0.00117759
0.00117973
0.00118188
0.00118403
0.00118617
0.00118833
0.00119048
0.00119263
0.00119479
0.00119695
0.00119911
0.00120127
0.00120344
0.0012056
0.00120777
0.00120994
0.00121211
0.00121429
0.00121646
0.00121864
0.00122082
0.001223
0.00122519
0.00122737
0.00122956
0.00123175
0.00123394
0.00123614
0.00123833
0.00124053
0.00124273
0.00124493
0.00124713
0.00124934
0.00125155
0.00125376
0.00125597
0.00125818
0.0012604
0.00126261
0.00126483
0.00126705
0.00126928
0.0012715
0.00127373
0.00127596
0.00127819
0.00128042
0.00128265
0.00128489
0.00128713
0.00128937
0.00129161
0.00129386
0.0012961
0.00129835
0.0013006
0.00130285
0.00130511
0.00130736
0.00130962
0.00131188
0.00131414
0.00131641
0.00131867
0.00132094
0.00132321
0.00132548
0.00132776
0.00133003
0.00133231
0.00133459
0.00133687
0.00133915
0.00134144
0.00134373
0.00134601
0.00134831
0.0013506
0.00135289
0.00135519
0.00135749
0.00135979
0.00136209
0.0013644
0.0013667
0.00136901
0.00137132
0.00137364
0.00137595
0.00137827
0.00138059
0.00138291
0.00138523
0.00138755
0.00138988
0.00139221
0.00139454
0.00139687
0.0013992
0.00140154
0.00140388
0.00140622
0.00140856
0.0014109
0.00141325
0.00141559
0.00141794
0.0014203
0.00142265
0.001425
0.00142736
0.00142972
0.00143208
0.00143445
0.00143681
0.00143918
0.00144155
0.00144392
0.00144629
0.00144867
0.00145104
0.00145342
0.0014558
0.00145818
0.00146057
0.00146296
0.00146534
0.00146773
0.00147013
0.00147252
0.00147492
0.00147732
0.00147972
0.00148212
0.00148452
0.00148693
0.00148934
0.00149175
0.00149416
0.00149657
0.00149899
0.00150141
0.00150383
0.00150625
0.00150867
0.0015111
0.00151352
0.00151595
0.00151838
0.00152082
0.00152325
0.00152569
0.00152813
0.00153057
0.00153301
0.00153546
0.00153791
0.00154035
0.00154281
0.00154526
0.00154771
0.00155017
0.00155263
0.00155509
0.00155755
0.00156002
0.00156248
0.00156495
0.00156742
0.00156989
0.00157237
0.00157484
0.00157732
0.0015798
0.00158228
0.00158477
0.00158725
0.00158974
0.00159223
0.00159472
0.00159722
0.00159971
0.00160221
0.00160471
0.00160721
0.00160971
0.00161222
0.00161473
0.00161724
0.00161975
0.00162226
0.00162478
0.00162729
0.00162981
0.00163233
0.00163486
0.00163738
0.00163991
0.00164244
0.00164497
0.0016475
0.00165003
0.00165257
0.00165511
0.00165765
0.00166019
0.00166274
0.00166528
0.00166783
0.00167038
0.00167293
0.00167549
0.00167804
0.0016806
0.00168316
0.00168572
0.00168829
0.00169085
0.00169342
0.00169599
0.00169856
0.00170114
0.00170371
0.00170629
0.00170887
0.00171145
0.00171403
0.00171662
0.00171921
0.0017218
0.00172439
0.00172698
0.00172957
0.00173217
0.00173477
0.00173737
0.00173997
0.00174258
0.00174519
0.00174779
0.0017504
0.00175302
0.00175563
0.00175825
0.00176087
0.00176349
0.00176611
0.00176873
0.00177136
0.00177399
0.00177662
0.00177925
0.00178188
0.00178452
0.00178716
0.0017898
0.00179244
0.00179508
0.00179773
0.00180038
0.00180303
0.00180568
0.00180833
0.00181099
0.00181364
0.0018163
0.00181896
0.00182163
0.00182429
0.00182696
0.00182963
0.0018323
0.00183497
0.00183765
0.00184032
0.001843
0.00184568
0.00184837
0.00185105
0.00185374
0.00185643
0.00185912
0.00186181
0.0018645
0.0018672
0.0018699
0.0018726
0.0018753
0.00187801
0.00188071
0.00188342
0.00188613
0.00188884
0.00189156
0.00189427
0.00189699
0.00189971
0.00190243
0.00190515
0.00190788
0.00191061
0.00191334
0.00191607
0.0019188
0.00192154
0.00192427
0.00192701
0.00192975
0.0019325
0.00193524
0.00193799
0.00194074
0.00194349
0.00194624
0.001949
0.00195175
0.00195451
0.00195727
0.00196003
0.0019628
0.00196557
0.00196833
0.0019711
0.00197388
0.00197665
0.00197943
0.00198221
0.00198499
0.00198777
0.00199055
0.00199334
0.00199613
0.00199892
0.00200171
0.0020045
0.0020073
0.00201009
0.00201289
0.0020157
0.0020185
0.0020213
0.00202411
0.00202692
0.00202973
0.00203255
0.00203536
0.00203818
0.002041
0.00204382
0.00204664
0.00204947
0.00205229
0.00205512
0.00205795
0.00206078
0.00206362
0.00206646
0.00206929
0.00207214
0.00207498
0.00207782
0.00208067
0.00208352
0.00208637
0.00208922
0.00209207
0.00209493
0.00209779
0.00210065
0.00210351
0.00210637
0.00210924
0.00211211
0.00211498
0.00211785
0.00212072
0.0021236
0.00212647
0.00212935
0.00213224
0.00213512
0.002138
0.00214089
0.00214378
0.00214667
0.00214956
0.00215246
0.00215536
0.00215826
0.00216116
0.00216406
0.00216696
0.00216987
0.00217278
0.00217569
0.0021786
0.00218152
0.00218443
0.00218735
0.00219027
0.0021932
0.00219612
0.00219905
0.00220197
0.0022049
0.00220784
0.00221077
0.00221371
0.00221664
0.00221958
0.00222253
0.00222547
0.00222841
0.00223136
0.00223431
0.00223726
0.00224022
0.00224317
0.00224613
0.00224909
0.00225205
0.00225501
0.00225798
0.00226095
0.00226392
0.00226689
0.00226986
0.00227283
0.00227581
0.00227879
0.00228177
0.00228475
0.00228774
0.00229072
0.00229371
0.0022967
0.0022997
0.00230269
0.00230569
0.00230869
0.00231169
0.00231469
0.00231769
0.0023207
0.00232371
0.00232672
0.00232973
0.00233274
0.00233576
0.00233878
0.0023418
0.00234482
0.00234784
0.00235087
0.00235389
0.00235692
0.00235995
0.00236299
0.00236602
0.00236906
0.0023721
0.00237514
0.00237818
0.00238123
0.00238428
0.00238732
0.00239038
0.00239343
0.00239648
0.00239954
0.0024026
0.00240566
0.00240872
0.00241179
0.00241485
0.00241792
0.00242099
0.00242406
0.00242714
0.00243021
0.00243329
0.00243637
0.00243946
0.00244254
0.00244563
0.00244871
0.0024518
0.00245489
0.00245799
0.00246108
0.00246418
0.00246728
0.00247038
0.00247349
0.00247659
0.0024797
0.00248281
0.00248592
0.00248903
0.00249215
0.00249527
0.00249838
0.00250151
0.00250463
0.00250775
0.00251088
0.00251401
0.00251714
0.00252027
0.00252341
0.00252654
0.00252968
0.00253282
0.00253597
0.00253911
0.00254226
0.0025454
0.00254856
0.00255171
0.00255486
0.00255802
0.00256118
0.00256434
0.0025675
0.00257066
0.00257383
0.002577
0.00258016
0.00258334
0.00258651
0.00258969
0.00259286
0.00259604
0.00259922
0.00260241
0.00260559
0.00260878
0.00261197
0.00261516
0.00261835
0.00262155
0.00262475
0.00262794
0.00263115
0.00263435
0.00263755
0.00264076
0.00264397
0.00264718
0.00265039
0.00265361
0.00265682
0.00266004
0.00266326
0.00266648
0.00266971
0.00267294
0.00267616
0.00267939
0.00268263
0.00268586
0.0026891
0.00269233
0.00269557
0.00269882
0.00270206
0.0027053
0.00270855
0.0027118
0.00271505
0.00271831
0.00272156
0.00272482
0.00272808
0.00273134
0.0027346
0.00273787
0.00274114
0.00274441
0.00274768
0.00275095
0.00275422
0.0027575
0.00276078
0.00276406
0.00276734
0.00277063
0.00277391
0.0027772
0.00278049
0.00278379
0.00278708
0.00279038
0.00279368
0.00279698
0.00280028
0.00280358
0.00280689
0.0028102
0.00281351
0.00281682
0.00282013
0.00282345
0.00282677
0.00283009
0.00283341
0.00283673
0.00284006
0.00284338
0.00284671
0.00285005
0.00285338
0.00285671
0.00286005
0.00286339
0.00286673
0.00287007
0.00287342
0.00287677
0.00288012
0.00288347
0.00288682
0.00289017
0.00289353
0.00289689
0.00290025
0.00290361
0.00290698
0.00291034
0.00291371
0.00291708
0.00292046
0.00292383
0.00292721
0.00293058
0.00293396
0.00293735
0.00294073
0.00294412
0.0029475
0.00295089
0.00295429
0.00295768
0.00296108
0.00296447
0.00296787
0.00297127
0.00297468
0.00297808
0.00298149
0.0029849
0.00298831
0.00299173
0.00299514
0.00299856
0.00300198
0.0030054
0.00300882
0.00301225
0.00301567
0.0030191
0.00302253
0.00302597
0.0030294
0.00303284
0.00303627
0.00303972
0.00304316
0.0030466
0.00305005
0.0030535
0.00305695
0.0030604
0.00306385
0.00306731
0.00307077
0.00307423
0.00307769
0.00308115
0.00308462
0.00308809
0.00309156
0.00309503
0.0030985
0.00310198
0.00310546
0.00310894
0.00311242
0.0031159
0.00311939
0.00312287
0.00312636
0.00312985
0.00313335
0.00313684
0.00314034
0.00314384
0.00314734
0.00315084
0.00315435
0.00315785
0.00316136
0.00316487
0.00316839
0.0031719
0.00317542
0.00317893
0.00318246
0.00318598
0.0031895
0.00319303
0.00319656
0.00320009
0.00320362
0.00320715
0.00321069
0.00321423
0.00321777
0.00322131
0.00322485
0.0032284
0.00323195
0.0032355
0.00323905
0.0032426
0.00324616
0.00324971
0.00325327
0.00325683
0.0032604
0.00326396
0.00326753
0.0032711
0.00327467
0.00327824
0.00328182
0.0032854
0.00328897
0.00329255
0.00329614
0.00329972
0.00330331
0.0033069
0.00331049
0.00331408
0.00331768
0.00332127
0.00332487
0.00332847
0.00333207
0.00333568
0.00333928
0.00334289
0.0033465
0.00335011
0.00335373
0.00335734
0.00336096
0.00336458
0.0033682
0.00337183
0.00337545
0.00337908
0.00338271
0.00338634
0.00338997
0.00339361
0.00339725
0.00340089
0.00340453
0.00340817
0.00341181
0.00341546
0.00341911
0.00342276
0.00342641
0.00343007
0.00343373
0.00343739
0.00344105
0.00344471
0.00344837
0.00345204
0.00345571
0.00345938
0.00346305
0.00346673
0.0034704
0.00347408
0.00347776
0.00348144
0.00348513
0.00348881
0.0034925
0.00349619
0.00349988
0.00350358
0.00350727
0.00351097
0.00351467
0.00351837
0.00352207
0.00352578
0.00352949
0.0035332
0.00353691
0.00354062
0.00354434
0.00354805
0.00355177
0.00355549
0.00355922
0.00356294
0.00356667
0.0035704
0.00357413
0.00357786
0.0035816
0.00358533
0.00358907
0.00359281
0.00359655
0.0036003
0.00360404
0.00360779
0.00361154
0.0036153
0.00361905
0.00362281
0.00362656
0.00363032
0.00363409
0.00363785
0.00364162
0.00364538
0.00364915
0.00365293
0.0036567
0.00366048
0.00366425
0.00366803
0.00367181
0.0036756
0.00367938
0.00368317
0.00368696
0.00369075
0.00369454
0.00369834
0.00370214
0.00370593
0.00370974
0.00371354
0.00371734
0.00372115
0.00372496
0.00372877
0.00373258
0.0037364
0.00374021
0.00374403
0.00374785
0.00375167
0.0037555
0.00375933
0.00376315
0.00376698
0.00377082
0.00377465
0.00377849
0.00378232
0.00378616
0.00379001
0.00379385
0.0037977
0.00380154
0.00380539
0.00380924
0.0038131
0.00381695
0.00382081
0.00382467
0.00382853
0.0038324
0.00383626
0.00384013
0.003844
0.00384787
0.00385174
0.00385562
0.00385949
0.00386337
0.00386725
0.00387114
0.00387502
0.00387891
0.0038828
0.00388669
0.00389058
0.00389447
0.00389837
0.00390227
0.00390617
0.00391007
0.00391397
0.00391788
0.00392179
0.0039257
0.00392961
0.00393353
0.00393744
0.00394136
0.00394528
0.0039492
0.00395312
0.00395705
0.00396098
0.00396491
0.00396884
0.00397277
0.00397671
0.00398064
0.00398458
0.00398853
0.00399247
0.00399641
0.00400036
0.00400431
0.00400826
0.00401221
0.00401617
0.00402013
0.00402408
0.00402804
0.00403201
0.00403597
0.00403994
0.00404391
0.00404788
0.00405185
0.00405582
0.0040598
0.00406378
0.00406776
0.00407174
0.00407573
0.00407971
0.0040837
0.00408769
0.00409168
0.00409567
0.00409967
0.00410367
0.00410767
0.00411167
0.00411567
0.00411968
0.00412369
0.0041277
0.00413171
0.00413572
0.00413974
0.00414375
0.00414777
0.00415179
0.00415582
0.00415984
0.00416387
0.0041679
0.00417193
0.00417596
0.00418
0.00418403
0.00418807
0.00419211
0.00419615
0.0042002
0.00420424
0.00420829
0.00421234
0.0042164
0.00422045
0.00422451
0.00422856
0.00423262
0.00423669
0.00424075
0.00424482
0.00424888
0.00425295
0.00425703
0.0042611
0.00426518
0.00426925
0.00427333
0.00427741
0.0042815
0.00428558
0.00428967
0.00429376
0.00429785
0.00430194
0.00430604
0.00431014
0.00431424
0.00431834
0.00432244
0.00432654
0.00433065
0.00433476
0.00433887
0.00434298
0.0043471
0.00435121
0.00435533
0.00435945
0.00436358
0.0043677
0.00437183
0.00437595
0.00438008
0.00438422
0.00438835
0.00439249
0.00439663
0.00440077
0.00440491
0.00440905
0.0044132
0.00441734
0.00442149
0.00442565
0.0044298
0.00443395
0.00443811
0.00444227
0.00444643
0.0044506
0.00445476
0.00445893
0.0044631
0.00446727
0.00447144
0.00447562
0.00447979
0.00448397
0.00448815
0.00449234
0.00449652
0.00450071
0.0045049
0.00450909
0.00451328
0.00451747
0.00452167
0.00452587
0.00453007
0.00453427
0.00453848
0.00454268
0.00454689
0.0045511
0.00455531
0.00455953
0.00456374
0.00456796
0.00457218
0.0045764
0.00458063
0.00458485
0.00458908
0.00459331
0.00459754
0.00460177
0.00460601
0.00461025
0.00461449
0.00461873
0.00462297
0.00462722
0.00463146
0.00463571
0.00463996
0.00464422
0.00464847
0.00465273
0.00465699
0.00466125
0.00466551
0.00466977
0.00467404
0.00467831
0.00468258
0.00468685
0.00469113
0.0046954
0.00469968
0.00470396
0.00470824
0.00471253
0.00471681
0.0047211
0.00472539
0.00472968
0.00473398
0.00473827
0.00474257
0.00474687
0.00475117
0.00475548
0.00475978
0.00476409
0.0047684
0.00477271
0.00477702
0.00478134
0.00478566
0.00478998
0.0047943
0.00479862
0.00480294
0.00480727
0.0048116
0.00481593
0.00482026
0.0048246
0.00482894
0.00483327
0.00483762
0.00484196
0.0048463
0.00485065
0.004855
0.00485935
0.0048637
0.00486805
0.00487241
0.00487677
0.00488113
0.00488549
0.00488985
0.00489422
0.00489859
0.00490296
0.00490733
0.0049117
0.00491608
0.00492046
0.00492484
0.00492922
0.0049336
0.00493799
0.00494237
0.00494676
0.00495116
0.00495555
0.00495994
0.00496434
0.00496874
0.00497314
0.00497754
0.00498195
0.00498636
0.00499076
0.00499518
0.00499959
0.005004
0.00500842
0.00501284
0.00501726
0.00502168
0.0050261
0.00503053
0.00503496
0.00503939
0.00504382
0.00504826
0.00505269
0.00505713
0.00506157
0.00506601
0.00507046
0.0050749
0.00507935
0.0050838
0.00508825
0.0050927
0.00509716
0.00510162
0.00510608
0.00511054
0.005115
0.00511947
0.00512393
0.0051284
0.00513287
0.00513735
0.00514182
0.0051463
0.00515078
0.00515526
0.00515974
0.00516423
0.00516871
0.0051732
0.00517769
0.00518219
0.00518668
0.00519118
0.00519568
0.00520018
0.00520468
0.00520918
0.00521369
0.0052182
0.00522271
0.00522722
0.00523173
0.00523625
0.00524077
0.00524529
0.00524981
0.00525433
0.00525886
0.00526339
0.00526792
0.00527245
0.00527698
0.00528152
0.00528605
0.00529059
0.00529513
0.00529968
0.00530422
0.00530877
0.00531332
0.00531787
0.00532242
0.00532698
0.00533153
0.00533609
0.00534065
0.00534522
0.00534978
0.00535435
0.00535892
0.00536349
0.00536806
0.00537263
0.00537721
0.00538179
0.00538637
0.00539095
0.00539554
0.00540012
0.00540471
0.0054093
0.00541389
0.00541849
0.00542308
0.00542768
0.00543228
0.00543688
0.00544148
0.00544609
0.0054507
0.00545531
0.00545992
0.00546453
0.00546915
0.00547376
0.00547838
0.005483
0.00548763
0.00549225
0.00549688
0.00550151
0.00550614
0.00551077
0.00551541
0.00552004
0.00552468
0.00552932
0.00553397
0.00553861
0.00554326
0.0055479
0.00555256
0.00555721
0.00556186
0.00556652
0.00557118
0.00557584
0.0055805
0.00558516
0.00558983
0.0055945
0.00559917
0.00560384
0.00560851
0.00561319
0.00561787
0.00562254
0.00562723
0.00563191
0.0056366
0.00564128
0.00564597
0.00565066
0.00565536
0.00566005
0.00566475
0.00566945
0.00567415
0.00567885
0.00568356
0.00568826
0.00569297
0.00569768
0.0057024
0.00570711
0.00571183
0.00571655
0.00572127
0.00572599
0.00573071
0.00573544
0.00574017
0.0057449
0.00574963
0.00575436
0.0057591
0.00576384
0.00576858
0.00577332
0.00577806
0.00578281
0.00578756
0.00579231
0.00579706
0.00580181
0.00580657
0.00581133
0.00581609
0.00582085
0.00582561
0.00583038
0.00583514
0.00583991
0.00584468
0.00584946
0.00585423
0.00585901
0.00586379
0.00586857
0.00587335
0.00587814
0.00588292
0.00588771
0.0058925
0.0058973
0.00590209
0.00590689
0.00591169
0.00591649
0.00592129
0.00592609
0.0059309
0.00593571
0.00594052
0.00594533
0.00595014
0.00595496
0.00595978
0.0059646
0.00596942
0.00597424
0.00597907
0.0059839
0.00598873
0.00599356
0.00599839
0.00600323
0.00600806
0.0060129
0.00601774
0.00602259
0.00602743
0.00603228
0.00603713
0.00604198
0.00604683
0.00605169
0.00605654
0.0060614
0.00606626
0.00607113
0.00607599
0.00608086
0.00608573
0.0060906
0.00609547
0.00610034
0.00610522
0.0061101
0.00611498
0.00611986
0.00612475
0.00612963
0.00613452
0.00613941
0.0061443
0.0061492
0.00615409
0.00615899
0.00616389
0.00616879
0.00617369
0.0061786
0.00618351
0.00618842
0.00619333
0.00619824
0.00620316
0.00620807
0.00621299
0.00621792
0.00622284
0.00622776
0.00623269
0.00623762
0.00624255
0.00624748
0.00625242
0.00625735
0.00626229
0.00626723
0.00627218
0.00627712
0.00628207
0.00628702
0.00629197
0.00629692
0.00630187
0.00630683
0.00631179
0.00631675
0.00632171
0.00632667
0.00633164
0.00633661
0.00634158
0.00634655
0.00635152
0.0063565
0.00636148
0.00636646
0.00637144
0.00637642
0.00638141
0.00638639
0.00639138
0.00639638
0.00640137
0.00640636
0.00641136
0.00641636
0.00642136
0.00642636
0.00643137
0.00643638
0.00644139
0.0064464
0.00645141
0.00645642
0.00646144
0.00646646
0.00647148
0.0064765
0.00648153