/*--------------------------------*- C++ -*----------------------------------*\
| =========                 |                                                 |
| \\      /  F ield         | OpenFOAM: The Open Source CFD Toolbox           |
|  \\    /   O peration     | Version:  2206                                  |
|   \\  /    A nd           | Website:  www.openfoam.com                      |
|    \\/     M anipulation  |                                                 |
\*---------------------------------------------------------------------------*/
FoamFile
{
    version     2.0;
    format      ascii;
    arch        "LSB;label=32;scalar=64";
    class       surfaceScalarField;
    location    "80";
    object      phi;
}
// * * * * * * * * * * * * * * * * * * * * * * * * * * * * * * * * * * * * * //

dimensions      [0 3 -1 0 0 0 0];

oriented        oriented;

internalField   nonuniform List<scalar> 
94990
(
-1.63245e-25
1.21123e-24
-7.69592e-25
6.34995e-25
-1.84343e-24
9.01255e-25
-3.17071e-24
1.39284e-24
-5.10256e-24
1.74472e-24
-7.27465e-24
2.29161e-24
-9.9347e-24
2.48511e-24
-1.28801e-23
3.07226e-24
-1.63554e-23
3.34104e-24
-2.01004e-23
3.86176e-24
-2.43644e-23
4.15636e-24
-2.89108e-23
4.6498e-24
-3.39736e-23
4.97225e-24
-3.93314e-23
5.44865e-24
-4.51818e-23
5.77277e-24
-5.1349e-23
6.24714e-24
-5.79986e-23
6.58236e-24
-6.49695e-23
7.04174e-24
-7.24158e-23
7.38779e-24
-8.01934e-23
7.84058e-24
-8.84366e-23
8.19211e-24
-9.70197e-23
8.63928e-24
-1.06061e-22
8.99607e-24
-1.15449e-22
9.43831e-24
-1.25288e-22
9.79942e-24
-1.35481e-22
1.0238e-23
-1.46118e-22
1.06024e-23
-1.57115e-22
1.10376e-23
-1.68552e-22
1.14053e-23
-1.80352e-22
1.18375e-23
-1.92589e-22
1.2208e-23
-2.05193e-22
1.26375e-23
-2.1823e-22
1.30106e-23
-2.31636e-22
1.34375e-23
-2.45473e-22
1.38131e-23
-2.59682e-22
1.42378e-23
-2.74319e-22
1.46153e-23
-2.89331e-22
1.50382e-23
-3.04769e-22
1.54175e-23
-3.20583e-22
1.58387e-23
-3.36821e-22
1.62195e-23
-3.53438e-22
1.66394e-23
-3.70476e-22
1.70215e-23
-3.87895e-22
1.74401e-23
-4.05735e-22
1.78234e-23
-4.23956e-22
1.82408e-23
-4.42596e-22
1.86253e-23
-4.61619e-22
1.90416e-23
-4.8106e-22
1.94271e-23
-5.00885e-22
1.98425e-23
-5.21127e-22
2.02289e-23
-5.41754e-22
2.06434e-23
-5.62797e-22
2.10306e-23
-5.84226e-22
2.14444e-23
-6.0607e-22
2.18323e-23
-6.28301e-22
2.22454e-23
-6.50946e-22
2.2634e-23
-6.73978e-22
2.30464e-23
-6.97425e-22
2.34356e-23
-7.21259e-22
2.38475e-23
-7.45506e-22
2.42372e-23
-7.70142e-22
2.46486e-23
-7.95191e-22
2.50388e-23
-8.20628e-22
2.54497e-23
-8.46478e-22
2.58404e-23
-8.72717e-22
2.62508e-23
-8.99368e-22
2.6642e-23
-9.26409e-22
2.7052e-23
-9.53861e-22
2.74436e-23
-9.81703e-22
2.78531e-23
-1.00996e-21
2.82451e-23
-1.0386e-21
2.86543e-23
-1.06766e-21
2.90466e-23
-1.0971e-21
2.94555e-23
-1.12696e-21
2.98482e-23
-1.1572e-21
3.02567e-23
-1.18786e-21
3.06497e-23
-1.21891e-21
3.10579e-23
-1.25037e-21
3.14512e-23
-1.28222e-21
3.18592e-23
-1.31448e-21
3.22527e-23
-1.34713e-21
3.26604e-23
-1.38019e-21
3.30542e-23
-1.41364e-21
3.34616e-23
-1.44751e-21
3.38557e-23
-1.48176e-21
3.42629e-23
-1.51642e-21
3.46572e-23
-1.55148e-21
3.50642e-23
-1.58694e-21
3.54586e-23
-1.6228e-21
3.58654e-23
-1.65907e-21
3.62601e-23
-1.69573e-21
3.66667e-23
-1.73279e-21
3.70616e-23
-1.77026e-21
3.7468e-23
-1.80812e-21
3.78631e-23
-1.84639e-21
3.82693e-23
-1.88506e-21
3.86645e-23
-1.92412e-21
3.90706e-23
-1.96359e-21
3.9466e-23
-2.00346e-21
3.98718e-23
-2.04373e-21
4.02674e-23
-2.0844e-21
4.06731e-23
-2.12547e-21
4.10689e-23
-2.16694e-21
4.14744e-23
-2.20881e-21
4.18703e-23
-2.25108e-21
4.22758e-23
-2.29376e-21
4.26718e-23
-2.33683e-21
4.30771e-23
-2.38031e-21
4.34732e-23
-2.42418e-21
4.38784e-23
-2.46846e-21
4.42747e-23
-2.51313e-21
4.46797e-23
-2.55821e-21
4.50761e-23
-2.60369e-21
4.5481e-23
-2.64957e-21
4.58775e-23
-2.69585e-21
4.62823e-23
-2.74253e-21
4.6679e-23
-2.78961e-21
4.70837e-23
-2.83709e-21
4.74804e-23
-2.88497e-21
4.7885e-23
-2.93326e-21
4.82818e-23
-2.98194e-21
4.86863e-23
-3.03103e-21
4.90833e-23
-3.08051e-21
4.94876e-23
-3.1304e-21
4.98847e-23
-3.18068e-21
5.0289e-23
-3.23137e-21
5.06861e-23
-3.28246e-21
5.10903e-23
-3.33395e-21
5.14875e-23
-3.38584e-21
5.18916e-23
-3.43813e-21
5.2289e-23
-3.49082e-21
5.2693e-23
-3.54391e-21
5.30904e-23
-3.5974e-21
5.34943e-23
-3.6513e-21
5.38918e-23
-3.70559e-21
5.42957e-23
-3.76028e-21
5.46932e-23
-3.81538e-21
5.5097e-23
-3.87087e-21
5.54946e-23
-3.92677e-21
5.58983e-23
-3.98307e-21
5.62961e-23
-4.03976e-21
5.66997e-23
-4.09686e-21
5.70975e-23
-4.15436e-21
5.7501e-23
-4.21226e-21
5.78989e-23
-4.27056e-21
5.83024e-23
-4.32926e-21
5.87003e-23
-4.38836e-21
5.91037e-23
-4.44787e-21
5.95017e-23
-4.50777e-21
5.99051e-23
-4.56807e-21
6.03031e-23
-4.62878e-21
6.07064e-23
-4.68988e-21
6.11045e-23
-4.75139e-21
6.15078e-23
-4.8133e-21
6.1906e-23
-4.8756e-21
6.23091e-23
-4.93831e-21
6.27074e-23
-5.00142e-21
6.31105e-23
-5.06493e-21
6.35088e-23
-5.12884e-21
6.39118e-23
-5.19315e-21
6.43102e-23
-5.25786e-21
6.47132e-23
-5.32298e-21
6.51116e-23
-5.38849e-21
6.55146e-23
-5.4544e-21
6.5913e-23
-5.52072e-21
6.63159e-23
-5.58743e-21
6.67144e-23
-5.65455e-21
6.71173e-23
-5.72206e-21
6.75158e-23
-5.78998e-21
6.79186e-23
-5.8583e-21
6.83172e-23
-5.92702e-21
6.872e-23
-5.99614e-21
6.91186e-23
-6.06566e-21
6.95214e-23
-6.13558e-21
6.992e-23
-6.2059e-21
7.03227e-23
-6.27662e-21
7.07214e-23
-6.34774e-21
7.11241e-23
-6.41927e-21
7.15228e-23
-6.49119e-21
7.19254e-23
-6.56351e-21
7.23243e-23
-6.63624e-21
7.27268e-23
-6.70937e-21
7.31257e-23
-6.78289e-21
7.35282e-23
-6.85682e-21
7.39271e-23
-6.93115e-21
7.43295e-23
-7.00588e-21
7.47285e-23
-7.08101e-21
7.51309e-23
-7.15654e-21
7.55299e-23
-7.23247e-21
7.59323e-23
-7.3088e-21
7.63313e-23
-7.38553e-21
7.67336e-23
-7.46267e-21
7.71327e-23
-7.5402e-21
7.7535e-23
-7.61813e-21
7.79341e-23
-7.69647e-21
7.83364e-23
-7.7752e-21
7.87355e-23
-7.85434e-21
7.91377e-23
-7.93388e-21
7.95369e-23
-8.01381e-21
7.99391e-23
-8.09415e-21
8.03383e-23
-8.17489e-21
8.07405e-23
-8.25603e-21
8.11397e-23
-8.33757e-21
8.15418e-23
-8.41952e-21
8.19411e-23
-8.50186e-21
8.23432e-23
-8.5846e-21
8.27425e-23
-8.66774e-21
8.31446e-23
-8.75129e-21
8.35439e-23
-8.83523e-21
8.39459e-23
-8.91958e-21
8.43453e-23
-9.00432e-21
8.47473e-23
-9.08947e-21
8.51467e-23
-9.17502e-21
8.55487e-23
-9.26097e-21
8.59481e-23
-9.34731e-21
8.635e-23
-9.43406e-21
8.67495e-23
-9.52121e-21
8.71514e-23
-9.60877e-21
8.75509e-23
-9.69672e-21
8.79528e-23
-9.78507e-21
8.83523e-23
-9.87382e-21
8.87541e-23
-9.96298e-21
8.91537e-23
-1.00525e-20
8.95555e-23
-1.01425e-20
8.99551e-23
-1.02328e-20
9.03569e-23
-1.03236e-20
9.07565e-23
-1.04148e-20
9.11583e-23
-1.05063e-20
9.15579e-23
-1.05983e-20
9.19596e-23
-1.06906e-20
9.23593e-23
-1.07834e-20
9.2761e-23
-1.08766e-20
9.31607e-23
-1.09701e-20
9.35624e-23
-1.10641e-20
9.39621e-23
-1.11584e-20
9.43637e-23
-1.12532e-20
9.47635e-23
-1.13484e-20
9.51651e-23
-1.14439e-20
9.55648e-23
-1.15399e-20
9.59665e-23
-1.16363e-20
9.63662e-23
-1.1733e-20
9.67679e-23
-1.18302e-20
9.71676e-23
-1.19278e-20
9.75692e-23
-1.20257e-20
9.7969e-23
-1.21241e-20
9.83706e-23
-1.22229e-20
9.87704e-23
-1.2322e-20
9.9172e-23
-1.24216e-20
9.95718e-23
-1.25216e-20
9.99734e-23
-1.2622e-20
1.00373e-22
-1.27227e-20
1.00775e-22
-1.28239e-20
1.01175e-22
-1.29255e-20
1.01576e-22
-1.30275e-20
1.01976e-22
-1.31298e-20
1.02377e-22
-1.32326e-20
1.02777e-22
-1.33358e-20
1.03179e-22
-1.34394e-20
1.03579e-22
-1.35434e-20
1.0398e-22
-1.36477e-20
1.0438e-22
-1.37525e-20
1.04782e-22
-1.38577e-20
1.05182e-22
-1.39633e-20
1.05583e-22
-1.40693e-20
1.05983e-22
-1.41756e-20
1.06384e-22
-1.42824e-20
1.06784e-22
-1.43896e-20
1.07186e-22
-1.44972e-20
1.07586e-22
-1.46052e-20
1.07987e-22
-1.47136e-20
1.08387e-22
-1.48224e-20
1.08788e-22
-1.49315e-20
1.09189e-22
-1.50411e-20
1.0959e-22
-1.51511e-20
1.0999e-22
-1.52615e-20
1.10391e-22
-1.53723e-20
1.10791e-22
-1.54835e-20
1.11193e-22
-1.55951e-20
1.11593e-22
-1.57071e-20
1.11994e-22
-1.58195e-20
1.12394e-22
-1.59323e-20
1.12795e-22
-1.60455e-20
1.13196e-22
-1.61591e-20
1.13597e-22
-1.62731e-20
1.13997e-22
-1.63875e-20
1.14398e-22
-1.65023e-20
1.14798e-22
-1.66175e-20
1.15199e-22
-1.67331e-20
1.156e-22
-1.68491e-20
1.16001e-22
-1.69655e-20
1.16401e-22
-1.70823e-20
1.16802e-22
-1.71995e-20
1.17202e-22
-1.73171e-20
1.17604e-22
-1.74351e-20
1.18004e-22
-1.75535e-20
1.18405e-22
-1.76723e-20
1.18805e-22
-1.77915e-20
1.19206e-22
-1.79111e-20
1.19607e-22
-1.80311e-20
1.20008e-22
-1.81515e-20
1.20408e-22
-1.82723e-20
1.20809e-22
-1.83935e-20
1.21209e-22
-1.85151e-20
1.2161e-22
-1.86371e-20
1.22011e-22
-1.87596e-20
1.22412e-22
-1.88824e-20
1.22812e-22
-1.90056e-20
1.23213e-22
-1.91292e-20
1.23614e-22
-1.92532e-20
1.24015e-22
-1.93776e-20
1.24415e-22
-1.95024e-20
1.24816e-22
-1.96276e-20
1.25216e-22
-1.97533e-20
1.25617e-22
-1.98793e-20
1.26018e-22
-2.00057e-20
1.26419e-22
-2.01325e-20
1.26819e-22
-2.02597e-20
1.2722e-22
-2.03874e-20
1.27621e-22
-2.05154e-20
1.28022e-22
-2.06438e-20
1.28422e-22
-2.07726e-20
1.28823e-22
-2.09018e-20
1.29223e-22
-2.10315e-20
1.29624e-22
-2.11615e-20
1.30025e-22
-2.12919e-20
1.30426e-22
-2.14227e-20
1.30826e-22
-2.1554e-20
1.31227e-22
-2.16856e-20
1.31628e-22
-2.18176e-20
1.32028e-22
-2.19501e-20
1.32429e-22
-2.20829e-20
1.3283e-22
-2.22161e-20
1.3323e-22
-2.23497e-20
1.33631e-22
-2.24838e-20
1.34032e-22
-2.26182e-20
1.34433e-22
-2.2753e-20
1.34833e-22
-2.28883e-20
1.35234e-22
-2.30239e-20
1.35635e-22
-2.31599e-20
1.36035e-22
-2.32964e-20
1.36436e-22
-2.34332e-20
1.36837e-22
-2.35705e-20
1.37237e-22
-2.37081e-20
1.37638e-22
-2.38461e-20
1.38039e-22
-2.39846e-20
1.38439e-22
-2.41234e-20
1.3884e-22
-2.42626e-20
1.39241e-22
-2.44023e-20
1.39641e-22
-2.45423e-20
1.40042e-22
-2.46828e-20
1.40443e-22
-2.48236e-20
1.40844e-22
-2.49649e-20
1.41244e-22
-2.51065e-20
1.41645e-22
-2.52485e-20
1.42046e-22
-2.5391e-20
1.42446e-22
-2.55338e-20
1.42847e-22
-2.56771e-20
1.43248e-22
-2.58207e-20
1.43648e-22
-2.59648e-20
1.44049e-22
-2.61092e-20
1.4445e-22
-2.62541e-20
1.4485e-22
-2.63993e-20
1.45251e-22
-2.6545e-20
1.45652e-22
-2.6691e-20
1.46053e-22
-2.68375e-20
1.46453e-22
-2.69843e-20
1.46854e-22
-2.71316e-20
1.47255e-22
-2.72793e-20
1.47655e-22
-2.74273e-20
1.48056e-22
-2.75758e-20
1.48457e-22
-2.77246e-20
1.48857e-22
-2.78739e-20
1.49258e-22
-2.80235e-20
1.49659e-22
-2.81736e-20
1.5006e-22
-2.83241e-20
1.5046e-22
-2.84749e-20
1.50861e-22
-2.86262e-20
1.51261e-22
-2.87778e-20
1.51662e-22
-2.89299e-20
1.52063e-22
-2.90824e-20
1.52464e-22
-2.92352e-20
1.52864e-22
-2.93885e-20
1.53265e-22
-2.95422e-20
1.53666e-22
-2.96962e-20
1.54067e-22
-2.98507e-20
1.54467e-22
-3.00056e-20
1.54868e-22
-3.01608e-20
1.55268e-22
-3.03165e-20
1.55669e-22
-3.04726e-20
1.5607e-22
-3.0629e-20
1.56471e-22
-3.07859e-20
1.56871e-22
-3.09432e-20
1.57272e-22
-3.11008e-20
1.57673e-22
-3.12589e-20
1.58073e-22
-3.14174e-20
1.58474e-22
-3.15763e-20
1.58875e-22
-3.17355e-20
1.59275e-22
-3.18952e-20
1.59676e-22
-3.20553e-20
1.60077e-22
-3.22158e-20
1.60478e-22
-3.23766e-20
1.60878e-22
-3.25379e-20
1.61279e-22
-3.26996e-20
1.61679e-22
-3.28617e-20
1.6208e-22
-3.30242e-20
1.62481e-22
-3.3187e-20
1.62882e-22
-3.33503e-20
1.63282e-22
-3.3514e-20
1.63683e-22
-3.36781e-20
1.64084e-22
-3.38426e-20
1.64485e-22
-3.40075e-20
1.64885e-22
-3.41727e-20
1.65286e-22
-3.43384e-20
1.65686e-22
-3.45045e-20
1.66087e-22
-3.4671e-20
1.66488e-22
-3.48379e-20
1.66889e-22
-3.50052e-20
1.67289e-22
-3.51729e-20
1.6769e-22
-3.5341e-20
1.6809e-22
-3.55095e-20
1.68492e-22
-3.56783e-20
1.68892e-22
-3.58476e-20
1.69293e-22
-3.60173e-20
1.69693e-22
-3.61874e-20
1.70094e-22
-3.63579e-20
1.70495e-22
-3.65288e-20
1.70896e-22
-3.67001e-20
1.71296e-22
-3.68718e-20
1.71697e-22
-3.70439e-20
1.72097e-22
-3.72164e-20
1.72499e-22
-3.73893e-20
1.72899e-22
-3.75626e-20
1.733e-22
-3.77363e-20
1.737e-22
-3.79104e-20
1.74101e-22
-3.80849e-20
1.74502e-22
-3.82598e-20
1.74903e-22
-3.84351e-20
1.75303e-22
-3.86108e-20
1.75704e-22
-3.87869e-20
1.76104e-22
-3.89634e-20
1.76505e-22
-3.91403e-20
1.76906e-22
-3.93176e-20
1.77307e-22
-3.94953e-20
1.77707e-22
-3.96734e-20
1.78108e-22
-3.98519e-20
1.78508e-22
-4.00309e-20
1.7891e-22
-4.02102e-20
1.7931e-22
-4.03899e-20
1.79711e-22
-4.057e-20
1.80111e-22
-4.07505e-20
1.80512e-22
-4.09314e-20
1.80913e-22
-4.11127e-20
1.81314e-22
-4.12944e-20
1.81714e-22
-4.14765e-20
1.82115e-22
-4.16591e-20
1.82515e-22
-4.1842e-20
1.82917e-22
-4.20253e-20
1.83317e-22
-4.2209e-20
1.83718e-22
-4.23931e-20
1.84118e-22
-4.25776e-20
1.84519e-22
-4.27626e-20
1.84919e-22
-4.29479e-20
1.85321e-22
-4.31336e-20
1.85721e-22
-4.33197e-20
1.86122e-22
-4.35062e-20
1.86522e-22
-4.36932e-20
1.86924e-22
-4.38805e-20
1.87324e-22
-4.40682e-20
1.87725e-22
-4.42563e-20
1.88125e-22
-4.44449e-20
1.88526e-22
-4.46338e-20
1.88926e-22
-4.48231e-20
1.89328e-22
-4.50128e-20
1.89728e-22
-4.5203e-20
1.90129e-22
-4.53935e-20
1.90529e-22
-4.55844e-20
1.9093e-22
-4.57758e-20
1.91331e-22
-4.59675e-20
1.91732e-22
-4.61596e-20
1.92132e-22
-4.63522e-20
1.92533e-22
-4.65451e-20
1.92933e-22
-4.67384e-20
1.93335e-22
-4.69322e-20
1.93735e-22
-4.71263e-20
1.94136e-22
-4.73208e-20
1.94536e-22
-4.75158e-20
1.94937e-22
-4.77111e-20
1.95337e-22
-4.79068e-20
1.95739e-22
-4.8103e-20
1.96139e-22
-4.82995e-20
1.9654e-22
-4.84965e-20
1.9694e-22
-4.86938e-20
1.97342e-22
-4.88915e-20
1.97742e-22
-4.90897e-20
1.98143e-22
-4.92882e-20
1.98543e-22
-4.94872e-20
1.98944e-22
-4.96865e-20
1.99344e-22
-4.98863e-20
1.99746e-22
-5.00864e-20
2.00146e-22
-5.02869e-20
2.00547e-22
-5.04879e-20
2.00947e-22
-5.06892e-20
2.01349e-22
-5.0891e-20
2.01748e-22
-5.10931e-20
2.0215e-22
-5.12957e-20
2.0255e-22
-5.14986e-20
2.02951e-22
-5.1702e-20
2.03351e-22
-5.19057e-20
2.03753e-22
-5.21099e-20
2.04153e-22
-5.23144e-20
2.04554e-22
-5.25194e-20
2.04954e-22
-5.27248e-20
2.05355e-22
-5.29305e-20
2.05755e-22
-5.31367e-20
2.06157e-22
-5.33432e-20
2.06557e-22
-5.35502e-20
2.06958e-22
-5.37575e-20
2.07358e-22
-5.39653e-20
2.0776e-22
-5.41735e-20
2.0816e-22
-5.4382e-20
2.08561e-22
-5.4591e-20
2.08961e-22
-5.48003e-20
2.09362e-22
-5.50101e-20
2.09762e-22
-5.52203e-20
2.10164e-22
-5.54308e-20
2.10564e-22
-5.56418e-20
2.10965e-22
-5.58532e-20
2.11365e-22
-5.60649e-20
2.11767e-22
-5.62771e-20
2.12166e-22
-5.64897e-20
2.12568e-22
-5.67026e-20
2.12968e-22
-5.6916e-20
2.13369e-22
-5.71298e-20
2.13769e-22
-5.73439e-20
2.14171e-22
-5.75585e-20
2.14571e-22
-5.77735e-20
2.14972e-22
-5.79888e-20
2.15372e-22
-5.82046e-20
2.15774e-22
-5.84208e-20
2.16173e-22
-5.86374e-20
2.16575e-22
-5.88543e-20
2.16975e-22
-5.90717e-20
2.17376e-22
-5.92895e-20
2.17776e-22
-5.95077e-20
2.18178e-22
-5.97262e-20
2.18577e-22
-5.99452e-20
2.18979e-22
-6.01646e-20
2.19379e-22
-6.03844e-20
2.19781e-22
-6.06046e-20
2.2018e-22
-6.08251e-20
2.20582e-22
-6.10461e-20
2.20982e-22
-6.12675e-20
2.21383e-22
-6.14893e-20
2.21783e-22
-6.17115e-20
2.22185e-22
-6.1934e-20
2.22584e-22
-6.2157e-20
2.22986e-22
-6.23804e-20
2.23386e-22
-6.26042e-20
2.23787e-22
-6.28284e-20
2.24187e-22
-6.3053e-20
2.24589e-22
-6.3278e-20
2.24988e-22
-6.35034e-20
2.2539e-22
-6.37291e-20
2.2579e-22
-6.39553e-20
2.26192e-22
-6.41819e-20
2.26591e-22
-6.44089e-20
2.26993e-22
-6.46363e-20
2.27393e-22
-6.48641e-20
2.27794e-22
-6.50923e-20
2.28194e-22
-6.53209e-20
2.28596e-22
-6.55499e-20
2.28995e-22
-6.57793e-20
2.29397e-22
-6.60091e-20
2.29797e-22
-6.62393e-20
2.30199e-22
-6.64699e-20
2.30598e-22
-6.67009e-20
2.31e-22
-6.69323e-20
2.314e-22
-6.71641e-20
2.31801e-22
-6.73963e-20
2.32201e-22
-6.76289e-20
2.32603e-22
-6.78619e-20
2.33002e-22
-6.80953e-20
2.33404e-22
-6.83291e-20
2.33804e-22
-6.85633e-20
2.34206e-22
-6.87979e-20
2.34605e-22
-6.90329e-20
2.35007e-22
-6.92683e-20
2.35406e-22
-6.95041e-20
2.35808e-22
-6.97403e-20
2.36208e-22
-6.99769e-20
2.3661e-22
-7.02139e-20
2.37009e-22
-7.04513e-20
2.37411e-22
-7.06892e-20
2.37811e-22
-7.09274e-20
2.38212e-22
-7.1166e-20
2.38612e-22
-7.1405e-20
2.39014e-22
-7.16444e-20
2.39413e-22
-7.18842e-20
2.39815e-22
-7.21244e-20
2.40215e-22
-7.2365e-20
2.40617e-22
-7.26061e-20
2.41016e-22
-7.28475e-20
2.41418e-22
-7.30893e-20
2.41817e-22
-7.33315e-20
2.42219e-22
-7.35741e-20
2.42619e-22
-7.38171e-20
2.43021e-22
-7.40606e-20
2.4342e-22
-7.43044e-20
2.43822e-22
-7.45486e-20
2.44222e-22
-7.47932e-20
2.44624e-22
-7.50383e-20
2.45023e-22
-7.52837e-20
2.45425e-22
-7.55295e-20
2.45824e-22
-7.57757e-20
2.46226e-22
-7.60224e-20
2.46626e-22
-7.62694e-20
2.47028e-22
-7.65168e-20
2.47427e-22
-7.67646e-20
2.47829e-22
-7.70129e-20
2.48229e-22
-7.72615e-20
2.48631e-22
-7.75105e-20
2.4903e-22
-7.776e-20
2.49432e-22
-7.80098e-20
2.49831e-22
-7.826e-20
2.50233e-22
-7.85106e-20
2.50633e-22
-7.87617e-20
2.51035e-22
-7.90131e-20
2.51434e-22
-7.92649e-20
2.51836e-22
-7.95172e-20
2.52235e-22
-7.97698e-20
2.52638e-22
-8.00229e-20
2.53037e-22
-8.02763e-20
2.53439e-22
-8.05301e-20
2.53838e-22
-8.07844e-20
2.5424e-22
-8.1039e-20
2.5464e-22
-8.1294e-20
2.55042e-22
-8.15495e-20
2.55441e-22
-8.18053e-20
2.55843e-22
-8.20616e-20
2.56242e-22
-8.23182e-20
2.56644e-22
-8.25753e-20
2.57044e-22
-8.28327e-20
2.57446e-22
-8.30905e-20
2.57845e-22
-8.33488e-20
2.58247e-22
-8.36074e-20
2.58646e-22
-8.38665e-20
2.59049e-22
-8.41259e-20
2.59448e-22
-8.43858e-20
2.5985e-22
-8.4646e-20
2.60249e-22
-8.49067e-20
2.60651e-22
-8.51677e-20
2.61051e-22
-8.54292e-20
2.61453e-22
-8.5691e-20
2.61852e-22
-8.59533e-20
2.62254e-22
-8.62159e-20
2.62653e-22
-8.6479e-20
2.63056e-22
-8.67425e-20
2.63455e-22
-8.70063e-20
2.63857e-22
-8.72706e-20
2.64256e-22
-8.75352e-20
2.64658e-22
-8.78003e-20
2.65058e-22
-8.80657e-20
2.6546e-22
-8.83316e-20
2.65859e-22
-8.85979e-20
2.66261e-22
-8.88645e-20
2.6666e-22
-8.91316e-20
2.67063e-22
-8.9399e-20
2.67462e-22
-8.96669e-20
2.67864e-22
-8.99352e-20
2.68263e-22
-9.02038e-20
2.68665e-22
-9.04729e-20
2.69064e-22
-9.07424e-20
2.69467e-22
-9.10122e-20
2.69866e-22
-9.12825e-20
2.70268e-22
-9.15532e-20
2.70667e-22
-9.18242e-20
2.71069e-22
-9.20957e-20
2.71469e-22
-9.23676e-20
2.71871e-22
-9.26398e-20
2.7227e-22
-9.29125e-20
2.72672e-22
-9.31856e-20
2.73071e-22
-9.3459e-20
2.73474e-22
-9.37329e-20
2.73873e-22
-9.40072e-20
2.74275e-22
-9.42819e-20
2.74674e-22
-9.45569e-20
2.75076e-22
-9.48324e-20
2.75475e-22
-9.51083e-20
2.75878e-22
-9.53846e-20
2.76277e-22
-9.56612e-20
2.76679e-22
-9.59383e-20
2.77078e-22
-9.62158e-20
2.77481e-22
-9.64937e-20
2.7788e-22
-9.6772e-20
2.78282e-22
-9.70506e-20
2.78681e-22
-9.73297e-20
2.79083e-22
-9.76092e-20
2.79482e-22
-9.78891e-20
2.79885e-22
-9.81694e-20
2.80284e-22
-9.84501e-20
2.80686e-22
-9.87311e-20
2.81085e-22
-9.90126e-20
2.81488e-22
-9.92945e-20
2.81887e-22
-9.95768e-20
2.82289e-22
-9.98595e-20
2.82688e-22
-1.00143e-19
2.8309e-22
-1.00426e-19
2.83489e-22
-1.0071e-19
2.83892e-22
-1.00994e-19
2.84291e-22
-1.01279e-19
2.84693e-22
-1.01564e-19
2.85092e-22
-1.0185e-19
2.85494e-22
-1.02135e-19
2.85893e-22
-1.02422e-19
2.86296e-22
-1.02708e-19
2.86695e-22
-1.02995e-19
2.87097e-22
-1.03283e-19
2.87496e-22
-1.03571e-19
2.87899e-22
-1.03859e-19
2.88298e-22
-1.04148e-19
2.887e-22
-1.04437e-19
2.89099e-22
-1.04726e-19
2.89501e-22
-1.05016e-19
2.899e-22
-1.05307e-19
2.90303e-22
-1.05597e-19
2.90702e-22
-1.05888e-19
2.91104e-22
-1.0618e-19
2.91503e-22
-1.06472e-19
2.91906e-22
-1.06764e-19
2.92304e-22
-1.07057e-19
2.92707e-22
-1.0735e-19
2.93106e-22
-1.07644e-19
2.93508e-22
-1.07937e-19
2.93907e-22
-1.08232e-19
2.9431e-22
-1.08526e-19
2.94709e-22
-1.08822e-19
2.95111e-22
-1.09117e-19
2.9551e-22
-1.09413e-19
2.95913e-22
-1.09709e-19
2.96311e-22
-1.10006e-19
2.96714e-22
-1.10303e-19
2.97113e-22
-1.10601e-19
2.97515e-22
-1.10899e-19
2.97914e-22
-1.11197e-19
2.98317e-22
-1.11496e-19
2.98716e-22
-1.11795e-19
2.99118e-22
-1.12094e-19
2.99517e-22
-1.12394e-19
2.9992e-22
-1.12694e-19
3.00318e-22
-1.12995e-19
3.00721e-22
-1.13296e-19
3.0112e-22
-1.13598e-19
3.01522e-22
-1.139e-19
3.01921e-22
-1.14202e-19
3.02324e-22
-1.14505e-19
3.02722e-22
-1.14808e-19
3.03125e-22
-1.15111e-19
3.03524e-22
-1.15415e-19
3.03926e-22
-1.1572e-19
3.04325e-22
-1.16024e-19
3.04728e-22
-1.1633e-19
3.05127e-22
-1.16635e-19
3.05529e-22
-1.16941e-19
3.05928e-22
-1.17247e-19
3.06331e-22
-1.17554e-19
3.06729e-22
-1.17861e-19
3.07132e-22
-1.18169e-19
3.07531e-22
-1.18477e-19
3.07933e-22
-1.18785e-19
3.08332e-22
-1.19094e-19
3.08735e-22
-1.19403e-19
3.09133e-22
-1.19712e-19
3.09536e-22
-1.20022e-19
3.09935e-22
-1.20333e-19
3.10338e-22
-1.20643e-19
3.10736e-22
-1.20954e-19
3.11139e-22
-1.21266e-19
3.11538e-22
-1.21578e-19
3.1194e-22
-1.2189e-19
3.12339e-22
-1.22203e-19
3.12742e-22
-1.22516e-19
3.1314e-22
-1.2283e-19
3.13543e-22
-1.23144e-19
3.13942e-22
-1.23458e-19
3.14345e-22
-1.23773e-19
3.14743e-22
-1.24088e-19
3.15146e-22
-1.24403e-19
3.15544e-22
-1.24719e-19
3.15947e-22
-1.25036e-19
3.16346e-22
-1.25352e-19
3.16749e-22
-1.2567e-19
3.17147e-22
-1.25987e-19
3.1755e-22
-1.26305e-19
3.17949e-22
-1.26623e-19
3.18352e-22
-1.26942e-19
3.1875e-22
-1.27261e-19
3.19153e-22
-1.27581e-19
3.19551e-22
-1.27901e-19
3.19954e-22
-1.28221e-19
3.20353e-22
-1.28542e-19
3.20756e-22
-1.28863e-19
3.21154e-22
-1.29185e-19
3.21557e-22
-1.29507e-19
3.21956e-22
-1.29829e-19
3.22358e-22
-1.30152e-19
3.22757e-22
-1.30475e-19
3.2316e-22
-1.30798e-19
3.23558e-22
-1.31122e-19
3.23961e-22
-1.31447e-19
3.2436e-22
-1.31772e-19
3.24763e-22
-1.32097e-19
3.25161e-22
-1.32422e-19
3.25564e-22
-1.32748e-19
3.25962e-22
-1.33075e-19
3.26365e-22
-1.33401e-19
3.26764e-22
-1.33729e-19
3.27167e-22
-1.34056e-19
3.27565e-22
-1.34384e-19
3.27968e-22
-1.34712e-19
3.28367e-22
-1.35041e-19
3.2877e-22
-1.3537e-19
3.29168e-22
-1.357e-19
3.29571e-22
-1.3603e-19
3.29969e-22
-1.3636e-19
3.30372e-22
-1.36691e-19
3.30771e-22
-1.37022e-19
3.31174e-22
-1.37354e-19
3.31572e-22
-1.37686e-19
3.31975e-22
-1.38018e-19
3.32373e-22
-1.38351e-19
3.32777e-22
-1.38684e-19
3.33175e-22
-1.39018e-19
3.33578e-22
-1.39352e-19
3.33976e-22
-1.39686e-19
3.34379e-22
-1.40021e-19
3.34778e-22
-1.40356e-19
3.35181e-22
-1.40692e-19
3.35579e-22
-1.41028e-19
3.35982e-22
-1.41364e-19
3.3638e-22
-1.41701e-19
3.36784e-22
-1.42038e-19
3.37182e-22
-1.42375e-19
3.37585e-22
-1.42713e-19
3.37983e-22
-1.43052e-19
3.38386e-22
-1.43391e-19
3.38785e-22
-1.4373e-19
3.39188e-22
-1.44069e-19
3.39586e-22
-1.44409e-19
3.39989e-22
-1.4475e-19
3.40387e-22
-1.45091e-19
3.4079e-22
-1.45432e-19
3.41189e-22
-1.45773e-19
3.41592e-22
-1.46115e-19
3.4199e-22
-1.46458e-19
3.42393e-22
-1.468e-19
3.42791e-22
-1.47144e-19
3.43195e-22
-1.47487e-19
3.43593e-22
-1.47831e-19
3.43996e-22
-1.48176e-19
3.44394e-22
-1.4852e-19
3.44797e-22
-1.48866e-19
3.45196e-22
-1.49211e-19
3.45599e-22
-1.49557e-19
3.45997e-22
-1.49904e-19
3.464e-22
-1.5025e-19
3.46798e-22
-1.50598e-19
3.47202e-22
-1.50945e-19
3.476e-22
-1.51293e-19
3.48003e-22
-1.51642e-19
3.48401e-22
-1.5199e-19
3.48804e-22
-1.5234e-19
3.49202e-22
-1.52689e-19
3.49606e-22
-1.53039e-19
3.50004e-22
-1.5339e-19
3.50407e-22
-1.5374e-19
3.50805e-22
-1.54092e-19
3.51209e-22
-1.54443e-19
3.51607e-22
-1.54795e-19
3.5201e-22
-1.55148e-19
3.52408e-22
-1.555e-19
3.52811e-22
-1.55854e-19
3.53209e-22
-1.56207e-19
3.53613e-22
-1.56561e-19
3.54011e-22
-1.56916e-19
3.54414e-22
-1.57271e-19
3.54812e-22
-1.57626e-19
3.55216e-22
-1.57981e-19
3.55613e-22
-1.58337e-19
3.56017e-22
-1.58694e-19
3.56415e-22
-1.59051e-19
3.56818e-22
-1.59408e-19
3.57216e-22
-1.59765e-19
3.5762e-22
-1.60123e-19
3.58018e-22
-1.60482e-19
3.58421e-22
-1.60841e-19
3.58819e-22
-1.612e-19
3.59222e-22
-1.6156e-19
3.5962e-22
-1.6192e-19
3.60024e-22
-1.6228e-19
3.60422e-22
-1.62641e-19
3.60825e-22
-1.63002e-19
3.61223e-22
-1.63364e-19
3.61627e-22
-1.63726e-19
3.62025e-22
-1.64088e-19
3.62428e-22
-1.64451e-19
3.62826e-22
-1.64814e-19
3.63229e-22
-1.65178e-19
3.63627e-22
-1.65542e-19
3.64031e-22
-1.65906e-19
3.64429e-22
-1.66271e-19
3.64832e-22
-1.66636e-19
3.6523e-22
-1.67002e-19
3.65634e-22
-1.67368e-19
3.66031e-22
-1.67734e-19
3.66435e-22
-1.68101e-19
3.66833e-22
-1.68468e-19
3.67236e-22
-1.68836e-19
3.67634e-22
-1.69204e-19
3.68038e-22
-1.69573e-19
3.68436e-22
-1.69941e-19
3.68839e-22
-1.70311e-19
3.69237e-22
-1.7068e-19
3.69641e-22
-1.7105e-19
3.70038e-22
-1.71421e-19
3.70442e-22
-1.71792e-19
3.7084e-22
-1.72163e-19
3.71243e-22
-1.72534e-19
3.71641e-22
-1.72907e-19
3.72045e-22
-1.73279e-19
3.72442e-22
-1.73652e-19
3.72846e-22
-1.74025e-19
3.73244e-22
-1.74399e-19
3.73648e-22
-1.74773e-19
3.74045e-22
-1.75147e-19
3.74449e-22
-1.75522e-19
3.74847e-22
-1.75897e-19
3.7525e-22
-1.76273e-19
3.75648e-22
-1.76649e-19
3.76052e-22
-1.77025e-19
3.76449e-22
-1.77402e-19
3.76853e-22
-1.7778e-19
3.77251e-22
-1.78157e-19
3.77654e-22
-1.78535e-19
3.78052e-22
-1.78914e-19
3.78456e-22
-1.79293e-19
3.78853e-22
-1.79672e-19
3.79257e-22
-1.80051e-19
3.79655e-22
-1.80432e-19
3.80059e-22
-1.80812e-19
3.80456e-22
-1.81193e-19
3.8086e-22
-1.81574e-19
3.81258e-22
-1.81956e-19
3.81661e-22
-1.82338e-19
3.82059e-22
-1.8272e-19
3.82463e-22
-1.83103e-19
3.8286e-22
-1.83486e-19
3.83264e-22
-1.8387e-19
3.83662e-22
-1.84254e-19
3.84066e-22
-1.84639e-19
3.84463e-22
-1.85023e-19
3.84867e-22
-1.85409e-19
3.85265e-22
-1.85794e-19
3.85668e-22
-1.8618e-19
3.86066e-22
-1.86567e-19
3.8647e-22
-1.86954e-19
3.86867e-22
-1.87341e-19
3.87271e-22
-1.87729e-19
3.87669e-22
-1.88117e-19
3.88073e-22
-1.88505e-19
3.8847e-22
-1.88894e-19
3.88874e-22
-1.89283e-19
3.89271e-22
-1.89673e-19
3.89675e-22
-1.90063e-19
3.90073e-22
-1.90454e-19
3.90477e-22
-1.90844e-19
3.90874e-22
-1.91236e-19
3.91278e-22
-1.91627e-19
3.91676e-22
-1.9202e-19
3.9208e-22
-1.92412e-19
3.92477e-22
-1.92805e-19
3.92881e-22
-1.93198e-19
3.93278e-22
-1.93592e-19
3.93682e-22
-1.93986e-19
3.9408e-22
-1.9438e-19
3.94484e-22
-1.94775e-19
3.94881e-22
-1.95171e-19
3.95285e-22
-1.95566e-19
3.95682e-22
-1.95962e-19
3.96086e-22
-1.96359e-19
3.96484e-22
-1.96756e-19
3.96888e-22
-1.97153e-19
3.97285e-22
-1.97551e-19
3.97689e-22
-1.97949e-19
3.98087e-22
-1.98347e-19
3.98491e-22
-1.98746e-19
3.98888e-22
-1.99145e-19
3.99292e-22
-1.99545e-19
3.99689e-22
-1.99945e-19
4.00093e-22
-2.00346e-19
4.00491e-22
-2.00747e-19
4.00895e-22
-2.01148e-19
4.01292e-22
-2.0155e-19
4.01696e-22
-2.01952e-19
4.02093e-22
-2.02354e-19
4.02498e-22
-2.02757e-19
4.02895e-22
-2.0316e-19
4.03299e-22
-2.03564e-19
4.03696e-22
-2.03968e-19
4.041e-22
-2.04373e-19
4.04498e-22
-2.04778e-19
4.04902e-22
-2.05183e-19
4.05299e-22
-2.05589e-19
4.05703e-22
-2.05995e-19
4.061e-22
-2.06401e-19
4.06505e-22
-2.06808e-19
4.06902e-22
-2.07215e-19
4.07306e-22
-2.07623e-19
4.07703e-22
-2.08031e-19
4.08107e-22
-2.0844e-19
4.08505e-22
-2.08849e-19
4.08909e-22
-2.09258e-19
4.09306e-22
-2.09668e-19
4.0971e-22
-2.10078e-19
4.10107e-22
-2.10488e-19
4.10512e-22
-2.10899e-19
4.10909e-22
-2.1131e-19
4.11313e-22
-2.11722e-19
4.1171e-22
-2.12134e-19
4.12114e-22
-2.12547e-19
4.12511e-22
-2.1296e-19
4.12916e-22
-2.13373e-19
4.13313e-22
-2.13787e-19
4.13717e-22
-2.14201e-19
4.14114e-22
-2.14615e-19
4.14519e-22
-2.1503e-19
4.14916e-22
-2.15446e-19
4.1532e-22
-2.15861e-19
4.15717e-22
-2.16277e-19
4.16121e-22
-2.16694e-19
4.16518e-22
-2.17111e-19
4.16923e-22
-2.17528e-19
4.1732e-22
-2.17946e-19
4.17724e-22
-2.18364e-19
4.18121e-22
-2.18782e-19
4.18525e-22
-2.19201e-19
4.18922e-22
-2.19621e-19
4.19327e-22
-2.2004e-19
4.19724e-22
-2.20461e-19
4.20128e-22
-2.20881e-19
4.20525e-22
-2.21302e-19
4.2093e-22
-2.21723e-19
4.21327e-22
-2.22145e-19
4.21731e-22
-2.22567e-19
4.22128e-22
-2.2299e-19
4.22532e-22
-2.23413e-19
4.22929e-22
-2.23836e-19
4.23334e-22
-2.2426e-19
4.23731e-22
-2.24684e-19
4.24135e-22
-2.25108e-19
4.24532e-22
-2.25533e-19
4.24937e-22
-2.25959e-19
4.25333e-22
-2.26384e-19
4.25738e-22
-2.26811e-19
4.26135e-22
-2.27237e-19
4.26539e-22
-2.27664e-19
4.26936e-22
-2.28091e-19
4.27341e-22
-2.28519e-19
4.27738e-22
-2.28947e-19
4.28142e-22
-2.29376e-19
4.28539e-22
-2.29805e-19
4.28944e-22
-2.30234e-19
4.2934e-22
-2.30664e-19
4.29745e-22
-2.31094e-19
4.30142e-22
-2.31524e-19
4.30546e-22
-2.31955e-19
4.30943e-22
-2.32387e-19
4.31348e-22
-2.32819e-19
4.31744e-22
-2.33251e-19
4.32149e-22
-2.33683e-19
4.32546e-22
-2.34116e-19
4.32951e-22
-2.34549e-19
4.33347e-22
-2.34983e-19
4.33752e-22
-2.35417e-19
4.34149e-22
-2.35852e-19
4.34553e-22
-2.36287e-19
4.3495e-22
-2.36722e-19
4.35355e-22
-2.37158e-19
4.35751e-22
-2.37594e-19
4.36156e-22
-2.38031e-19
4.36553e-22
-2.38468e-19
4.36957e-22
-2.38905e-19
4.37354e-22
-2.39343e-19
4.37759e-22
-2.39781e-19
4.38156e-22
-2.40219e-19
4.3856e-22
-2.40658e-19
4.38957e-22
-2.41098e-19
4.39362e-22
-2.41538e-19
4.39758e-22
-2.41978e-19
4.40163e-22
-2.42418e-19
4.4056e-22
-2.42859e-19
4.40964e-22
-2.43301e-19
4.41361e-22
-2.43742e-19
4.41766e-22
-2.44185e-19
4.42162e-22
-2.44627e-19
4.42567e-22
-2.4507e-19
4.42964e-22
-2.45513e-19
4.43369e-22
-2.45957e-19
4.43765e-22
-2.46401e-19
4.4417e-22
-2.46846e-19
4.44567e-22
-2.47291e-19
4.44971e-22
-2.47736e-19
4.45368e-22
-2.48182e-19
4.45773e-22
-2.48628e-19
4.46169e-22
-2.49075e-19
4.46574e-22
-2.49522e-19
4.46971e-22
-2.49969e-19
4.47376e-22
-2.50417e-19
4.47772e-22
-2.50865e-19
4.48177e-22
-2.51314e-19
4.48573e-22
-2.51763e-19
4.48978e-22
-2.52212e-19
4.49375e-22
-2.52662e-19
4.4978e-22
-2.53112e-19
4.50176e-22
-2.53562e-19
4.50581e-22
-2.54013e-19
4.50978e-22
-2.54465e-19
4.51383e-22
-2.54917e-19
4.51779e-22
-2.55369e-19
4.52184e-22
-2.55821e-19
4.5258e-22
-2.56274e-19
4.52985e-22
-2.56728e-19
4.53382e-22
-2.57182e-19
4.53787e-22
-2.57636e-19
4.54183e-22
-2.5809e-19
4.54588e-22
-2.58545e-19
4.54984e-22
-2.59001e-19
4.5539e-22
-2.59456e-19
4.55786e-22
-2.59913e-19
4.56191e-22
-2.60369e-19
4.56587e-22
-2.60826e-19
4.56992e-22
-2.61284e-19
4.57389e-22
-2.61741e-19
4.57794e-22
-2.622e-19
4.5819e-22
-2.62658e-19
4.58595e-22
-2.63117e-19
4.58991e-22
-2.63577e-19
4.59396e-22
-2.64036e-19
4.59793e-22
-2.64497e-19
4.60198e-22
-2.64957e-19
4.60594e-22
-2.65418e-19
4.60999e-22
-2.6588e-19
4.61395e-22
-2.66341e-19
4.61801e-22
-2.66804e-19
4.62197e-22
-2.67266e-19
4.62602e-22
-2.67729e-19
4.62998e-22
-2.68193e-19
4.63403e-22
-2.68656e-19
4.638e-22
-2.69121e-19
4.64205e-22
-2.69585e-19
4.64601e-22
-2.7005e-19
4.65006e-22
-2.70516e-19
4.65402e-22
-2.70981e-19
4.65808e-22
-2.71448e-19
4.66204e-22
-2.71914e-19
4.66609e-22
-2.72381e-19
4.67005e-22
-2.72849e-19
4.6741e-22
-2.73316e-19
4.67807e-22
-2.73785e-19
4.68212e-22
-2.74253e-19
4.68608e-22
-2.74722e-19
4.69013e-22
-2.75192e-19
4.69409e-22
-2.75661e-19
4.69815e-22