/*--------------------------------*- C++ -*----------------------------------*\
| =========                 |                                                 |
| \\      /  F ield         | OpenFOAM: The Open Source CFD Toolbox           |
|  \\    /   O peration     | Version:  2206                                  |
|   \\  /    A nd           | Website:  www.openfoam.com                      |
|    \\/     M anipulation  |                                                 |
\*---------------------------------------------------------------------------*/
FoamFile
{
    version     2.0;
    format      ascii;
    arch        "LSB;label=32;scalar=64";
    class       volVectorField;
    location    "80";
    object      U;
}
// * * * * * * * * * * * * * * * * * * * * * * * * * * * * * * * * * * * * * //

dimensions      [0 1 -1 0 0 0 0];

internalField   nonuniform List<vector> 
50000
(
(-9.44072e-13 2.41245e-06 1.11928e-12)
(-2.42838e-12 6.25849e-06 6.69978e-14)
(-4.51759e-12 1.01813e-05 5.24828e-14)
(-6.37e-12 1.41598e-05 5.28649e-14)
(-8.03657e-12 1.81566e-05 6.49401e-14)
(-9.77481e-12 2.21612e-05 7.14617e-14)
(-1.16916e-11 2.61701e-05 6.08082e-14)
(-1.34664e-11 3.01815e-05 6.69181e-14)
(-1.52545e-11 3.41945e-05 6.4393e-14)
(-1.70682e-11 3.82086e-05 6.66522e-14)
(-1.88479e-11 4.22235e-05 6.48292e-14)
(-2.06665e-11 4.62389e-05 6.59222e-14)
(-2.24406e-11 5.02549e-05 6.54536e-14)
(-2.42517e-11 5.42711e-05 6.60525e-14)
(-2.60373e-11 5.82876e-05 6.52025e-14)
(-2.78421e-11 6.23044e-05 6.6022e-14)
(-2.96269e-11 6.63213e-05 6.5458e-14)
(-3.14323e-11 7.03384e-05 6.5864e-14)
(-3.3219e-11 7.43556e-05 6.54991e-14)
(-3.5021e-11 7.8373e-05 6.58473e-14)
(-3.68103e-11 8.23904e-05 6.55307e-14)
(-3.86102e-11 8.64079e-05 6.58199e-14)
(-4.04011e-11 9.04254e-05 6.5557e-14)
(-4.21996e-11 9.4443e-05 6.57931e-14)
(-4.39917e-11 9.84607e-05 6.55706e-14)
(-4.5789e-11 0.000102478 6.5783e-14)
(-4.75821e-11 0.000106496 6.55807e-14)
(-4.93787e-11 0.000110514 6.57655e-14)
(-5.11723e-11 0.000114532 6.55928e-14)
(-5.29685e-11 0.00011855 6.57529e-14)
(-5.47624e-11 0.000122567 6.56006e-14)
(-5.65583e-11 0.000126585 6.57408e-14)
(-5.83524e-11 0.000130603 6.56097e-14)
(-6.01482e-11 0.000134621 6.5729e-14)
(-6.19424e-11 0.000138639 6.5617e-14)
(-6.37381e-11 0.000142657 6.57198e-14)
(-6.55325e-11 0.000146675 6.56223e-14)
(-6.7328e-11 0.000150693 6.57124e-14)
(-6.91226e-11 0.000154711 6.56265e-14)
(-7.0918e-11 0.000158729 6.57062e-14)
(-7.27126e-11 0.000162747 6.56301e-14)
(-7.4508e-11 0.000166765 6.57007e-14)
(-7.63027e-11 0.000170783 6.56331e-14)
(-7.8098e-11 0.000174801 6.5696e-14)
(-7.98927e-11 0.000178819 6.56357e-14)
(-8.1688e-11 0.000182838 6.56918e-14)
(-8.34828e-11 0.000186856 6.56379e-14)
(-8.52781e-11 0.000190874 6.56882e-14)
(-8.70729e-11 0.000194892 6.56397e-14)
(-8.88681e-11 0.00019891 6.56851e-14)
(-9.0663e-11 0.000202928 6.56413e-14)
(-9.24582e-11 0.000206946 6.56823e-14)
(-9.42531e-11 0.000210964 6.56427e-14)
(-9.60483e-11 0.000214982 6.56799e-14)
(-9.78433e-11 0.000219001 6.56439e-14)
(-9.96384e-11 0.000223019 6.56777e-14)
(-1.01433e-10 0.000227037 6.5645e-14)
(-1.03229e-10 0.000231055 6.56758e-14)
(-1.05024e-10 0.000235073 6.56459e-14)
(-1.06819e-10 0.000239091 6.56741e-14)
(-1.08614e-10 0.000243109 6.56467e-14)
(-1.10409e-10 0.000247128 6.56726e-14)
(-1.12204e-10 0.000251146 6.56474e-14)
(-1.13999e-10 0.000255164 6.56712e-14)
(-1.15794e-10 0.000259182 6.56481e-14)
(-1.17589e-10 0.0002632 6.567e-14)
(-1.19384e-10 0.000267218 6.56487e-14)
(-1.21179e-10 0.000271237 6.56689e-14)
(-1.22974e-10 0.000275255 6.56492e-14)
(-1.2477e-10 0.000279273 6.56679e-14)
(-1.26565e-10 0.000283291 6.56496e-14)
(-1.2836e-10 0.000287309 6.5667e-14)
(-1.30155e-10 0.000291327 6.565e-14)
(-1.3195e-10 0.000295346 6.56662e-14)
(-1.33745e-10 0.000299364 6.56504e-14)
(-1.3554e-10 0.000303382 6.56655e-14)
(-1.37335e-10 0.0003074 6.56507e-14)
(-1.3913e-10 0.000311418 6.56648e-14)
(-1.40925e-10 0.000315437 6.5651e-14)
(-1.42721e-10 0.000319455 6.56642e-14)
(-1.44516e-10 0.000323473 6.56513e-14)
(-1.46311e-10 0.000327491 6.56636e-14)
(-1.48106e-10 0.000331509 6.56516e-14)
(-1.49901e-10 0.000335528 6.56631e-14)
(-1.51696e-10 0.000339546 6.56518e-14)
(-1.53491e-10 0.000343564 6.56626e-14)
(-1.55286e-10 0.000347582 6.5652e-14)
(-1.57081e-10 0.0003516 6.56622e-14)
(-1.58877e-10 0.000355619 6.56522e-14)
(-1.60672e-10 0.000359637 6.56618e-14)
(-1.62467e-10 0.000363655 6.56524e-14)
(-1.64262e-10 0.000367673 6.56614e-14)
(-1.66057e-10 0.000371691 6.56525e-14)
(-1.67852e-10 0.00037571 6.5661e-14)
(-1.69647e-10 0.000379728 6.56527e-14)
(-1.71442e-10 0.000383746 6.56607e-14)
(-1.73238e-10 0.000387764 6.56528e-14)
(-1.75033e-10 0.000391782 6.56604e-14)
(-1.76828e-10 0.000395801 6.5653e-14)
(-1.78623e-10 0.000399819 6.56601e-14)
(-1.80418e-10 0.000403837 6.56531e-14)
(-1.82213e-10 0.000407855 6.56599e-14)
(-1.84008e-10 0.000411874 6.56532e-14)
(-1.85803e-10 0.000415892 6.56596e-14)
(-1.87599e-10 0.00041991 6.56533e-14)
(-1.89394e-10 0.000423928 6.56594e-14)
(-1.91189e-10 0.000427946 6.56534e-14)
(-1.92984e-10 0.000431965 6.56592e-14)
(-1.94779e-10 0.000435983 6.56535e-14)
(-1.96574e-10 0.000440001 6.5659e-14)
(-1.98369e-10 0.000444019 6.56536e-14)
(-2.00164e-10 0.000448037 6.56588e-14)
(-2.0196e-10 0.000452056 6.56537e-14)
(-2.03755e-10 0.000456074 6.56587e-14)
(-2.0555e-10 0.000460092 6.56537e-14)
(-2.07345e-10 0.00046411 6.56585e-14)
(-2.0914e-10 0.000468129 6.56538e-14)
(-2.10935e-10 0.000472147 6.56583e-14)
(-2.1273e-10 0.000476165 6.56539e-14)
(-2.14526e-10 0.000480183 6.56582e-14)
(-2.16321e-10 0.000484201 6.56539e-14)
(-2.18116e-10 0.00048822 6.56581e-14)
(-2.19911e-10 0.000492238 6.5654e-14)
(-2.21706e-10 0.000496256 6.56579e-14)
(-2.23501e-10 0.000500274 6.56541e-14)
(-2.25296e-10 0.000504293 6.56578e-14)
(-2.27092e-10 0.000508311 6.56541e-14)
(-2.28887e-10 0.000512329 6.56577e-14)
(-2.30682e-10 0.000516347 6.56542e-14)
(-2.32477e-10 0.000520366 6.56576e-14)
(-2.34272e-10 0.000524384 6.56542e-14)
(-2.36067e-10 0.000528402 6.56575e-14)
(-2.37862e-10 0.00053242 6.56543e-14)
(-2.39658e-10 0.000536438 6.56574e-14)
(-2.41453e-10 0.000540457 6.56543e-14)
(-2.43248e-10 0.000544475 6.56573e-14)
(-2.45043e-10 0.000548493 6.56543e-14)
(-2.46838e-10 0.000552511 6.56572e-14)
(-2.48633e-10 0.00055653 6.56544e-14)
(-2.50428e-10 0.000560548 6.56571e-14)
(-2.52224e-10 0.000564566 6.56544e-14)
(-2.54019e-10 0.000568584 6.5657e-14)
(-2.55814e-10 0.000572602 6.56545e-14)
(-2.57609e-10 0.000576621 6.5657e-14)
(-2.59404e-10 0.000580639 6.56545e-14)
(-2.61199e-10 0.000584657 6.56569e-14)
(-2.62994e-10 0.000588675 6.56545e-14)
(-2.6479e-10 0.000592694 6.56568e-14)
(-2.66585e-10 0.000596712 6.56546e-14)
(-2.6838e-10 0.00060073 6.56567e-14)
(-2.70175e-10 0.000604748 6.56546e-14)
(-2.7197e-10 0.000608767 6.56567e-14)
(-2.73765e-10 0.000612785 6.56546e-14)
(-2.7556e-10 0.000616803 6.56566e-14)
(-2.77356e-10 0.000620821 6.56546e-14)
(-2.79151e-10 0.000624839 6.56566e-14)
(-2.80946e-10 0.000628858 6.56547e-14)
(-2.82741e-10 0.000632876 6.56565e-14)
(-2.84536e-10 0.000636894 6.56547e-14)
(-2.86331e-10 0.000640912 6.56565e-14)
(-2.88127e-10 0.000644931 6.56547e-14)
(-2.89922e-10 0.000648949 6.56564e-14)
(-2.91717e-10 0.000652967 6.56547e-14)
(-2.93512e-10 0.000656985 6.56564e-14)
(-2.95307e-10 0.000661004 6.56548e-14)
(-2.97102e-10 0.000665022 6.56563e-14)
(-2.98897e-10 0.00066904 6.56548e-14)
(-3.00693e-10 0.000673058 6.56563e-14)
(-3.02488e-10 0.000677077 6.56548e-14)
(-3.04283e-10 0.000681095 6.56562e-14)
(-3.06078e-10 0.000685113 6.56548e-14)
(-3.07873e-10 0.000689131 6.56562e-14)
(-3.09668e-10 0.000693149 6.56548e-14)
(-3.11463e-10 0.000697168 6.56561e-14)
(-3.13259e-10 0.000701186 6.56549e-14)
(-3.15054e-10 0.000705204 6.56561e-14)
(-3.16849e-10 0.000709222 6.56549e-14)
(-3.18644e-10 0.000713241 6.56561e-14)
(-3.20439e-10 0.000717259 6.56549e-14)
(-3.22234e-10 0.000721277 6.5656e-14)
(-3.2403e-10 0.000725295 6.56549e-14)
(-3.25825e-10 0.000729314 6.5656e-14)
(-3.2762e-10 0.000733332 6.56549e-14)
(-3.29415e-10 0.00073735 6.5656e-14)
(-3.3121e-10 0.000741368 6.56549e-14)
(-3.33005e-10 0.000745387 6.56559e-14)
(-3.348e-10 0.000749405 6.56549e-14)
(-3.36596e-10 0.000753423 6.56559e-14)
(-3.38391e-10 0.000757441 6.5655e-14)
(-3.40186e-10 0.000761459 6.56559e-14)
(-3.41981e-10 0.000765478 6.5655e-14)
(-3.43776e-10 0.000769496 6.56559e-14)
(-3.45571e-10 0.000773514 6.5655e-14)
(-3.47367e-10 0.000777532 6.56558e-14)
(-3.49162e-10 0.000781551 6.5655e-14)
(-3.50957e-10 0.000785569 6.56558e-14)
(-3.52752e-10 0.000789587 6.5655e-14)
(-3.54547e-10 0.000793605 6.56558e-14)
(-3.56342e-10 0.000797624 6.5655e-14)
(-3.58137e-10 0.000801642 6.56557e-14)
(-3.59933e-10 0.00080566 6.5655e-14)
(-3.61728e-10 0.000809678 6.56557e-14)
(-3.63523e-10 0.000813697 6.5655e-14)
(-3.65318e-10 0.000817715 6.56557e-14)
(-3.67113e-10 0.000821733 6.56551e-14)
(-3.68908e-10 0.000825751 6.56557e-14)
(-3.70704e-10 0.00082977 6.56551e-14)
(-3.72499e-10 0.000833788 6.56557e-14)
(-3.74294e-10 0.000837806 6.56551e-14)
(-3.76089e-10 0.000841824 6.56556e-14)
(-3.77884e-10 0.000845843 6.56551e-14)
(-3.79679e-10 0.000849861 6.56556e-14)
(-3.81475e-10 0.000853879 6.56551e-14)
(-3.8327e-10 0.000857897 6.56556e-14)
(-3.85065e-10 0.000861915 6.56551e-14)
(-3.8686e-10 0.000865934 6.56556e-14)
(-3.88655e-10 0.000869952 6.56551e-14)
(-3.9045e-10 0.00087397 6.56556e-14)
(-3.92245e-10 0.000877988 6.56551e-14)
(-3.94041e-10 0.000882007 6.56555e-14)
(-3.95836e-10 0.000886025 6.56551e-14)
(-3.97631e-10 0.000890043 6.56555e-14)
(-3.99426e-10 0.000894061 6.56551e-14)
(-4.01221e-10 0.00089808 6.56555e-14)
(-4.03016e-10 0.000902098 6.56551e-14)
(-4.04812e-10 0.000906116 6.56555e-14)
(-4.06607e-10 0.000910134 6.56551e-14)
(-4.08402e-10 0.000914153 6.56555e-14)
(-4.10197e-10 0.000918171 6.56552e-14)
(-4.11992e-10 0.000922189 6.56555e-14)
(-4.13787e-10 0.000926207 6.56552e-14)
(-4.15583e-10 0.000930226 6.56555e-14)
(-4.17378e-10 0.000934244 6.56552e-14)
(-4.19173e-10 0.000938262 6.56554e-14)
(-4.20968e-10 0.00094228 6.56552e-14)
(-4.22763e-10 0.000946299 6.56554e-14)
(-4.24558e-10 0.000950317 6.56552e-14)
(-4.26353e-10 0.000954335 6.56554e-14)
(-4.28149e-10 0.000958353 6.56552e-14)
(-4.29944e-10 0.000962371 6.56554e-14)
(-4.31739e-10 0.00096639 6.56552e-14)
(-4.33534e-10 0.000970408 6.56554e-14)
(-4.35329e-10 0.000974426 6.56552e-14)
(-4.37124e-10 0.000978444 6.56554e-14)
(-4.3892e-10 0.000982463 6.56552e-14)
(-4.40715e-10 0.000986481 6.56554e-14)
(-4.4251e-10 0.000990499 6.56552e-14)
(-4.44305e-10 0.000994517 6.56553e-14)
(-4.461e-10 0.000998536 6.56552e-14)
(-4.47895e-10 0.00100255 6.56553e-14)
(-4.49691e-10 0.00100657 6.56552e-14)
(-4.51486e-10 0.00101059 6.56553e-14)
(-4.53281e-10 0.00101461 6.56552e-14)
(-4.55076e-10 0.00101863 6.56553e-14)
(-4.56871e-10 0.00102265 6.56552e-14)
(-4.58666e-10 0.00102666 6.56553e-14)
(-4.60461e-10 0.00103068 6.56552e-14)
(-4.62257e-10 0.0010347 6.56553e-14)
(-4.64052e-10 0.00103872 6.56552e-14)
(-4.65847e-10 0.00104274 6.56553e-14)
(-4.67642e-10 0.00104675 6.56552e-14)
(-4.69437e-10 0.00105077 6.56553e-14)
(-4.71232e-10 0.00105479 6.56553e-14)
(-4.73028e-10 0.00105881 6.56553e-14)
(-4.74823e-10 0.00106283 6.56553e-14)
(-4.76618e-10 0.00106685 6.56552e-14)
(-4.78413e-10 0.00107086 6.56553e-14)
(-4.80208e-10 0.00107488 6.56552e-14)
(-4.82003e-10 0.0010789 6.56553e-14)
(-4.83799e-10 0.00108292 6.56552e-14)
(-4.85594e-10 0.00108694 6.56553e-14)
(-4.87389e-10 0.00109096 6.56552e-14)
(-4.89184e-10 0.00109497 6.56553e-14)
(-4.90979e-10 0.00109899 6.56552e-14)
(-4.92774e-10 0.00110301 6.56553e-14)
(-4.9457e-10 0.00110703 6.56552e-14)
(-4.96365e-10 0.00111105 6.56553e-14)
(-4.9816e-10 0.00111506 6.56552e-14)
(-4.99955e-10 0.00111908 6.56553e-14)
(-5.0175e-10 0.0011231 6.56552e-14)
(-5.03545e-10 0.00112712 6.56553e-14)
(-5.0534e-10 0.00113114 6.56552e-14)
(-5.07136e-10 0.00113516 6.56553e-14)
(-5.08931e-10 0.00113917 6.56552e-14)
(-5.10726e-10 0.00114319 6.56553e-14)
(-5.12521e-10 0.00114721 6.56552e-14)
(-5.14316e-10 0.00115123 6.56553e-14)
(-5.16111e-10 0.00115525 6.56552e-14)
(-5.17907e-10 0.00115927 6.56553e-14)
(-5.19702e-10 0.00116328 6.56551e-14)
(-5.21497e-10 0.0011673 6.56553e-14)
(-5.23292e-10 0.00117132 6.56551e-14)
(-5.25087e-10 0.00117534 6.56553e-14)
(-5.26882e-10 0.00117936 6.56551e-14)
(-5.28678e-10 0.00118337 6.56553e-14)
(-5.30473e-10 0.00118739 6.56551e-14)
(-5.32268e-10 0.00119141 6.56553e-14)
(-5.34063e-10 0.00119543 6.56551e-14)
(-5.35858e-10 0.00119945 6.56553e-14)
(-5.37653e-10 0.00120347 6.56551e-14)
(-5.39449e-10 0.00120748 6.56553e-14)
(-5.41244e-10 0.0012115 6.56551e-14)
(-5.43039e-10 0.00121552 6.56553e-14)
(-5.44834e-10 0.00121954 6.56551e-14)
(-5.46629e-10 0.00122356 6.56553e-14)
(-5.48424e-10 0.00122758 6.56551e-14)
(-5.5022e-10 0.00123159 6.56553e-14)
(-5.52015e-10 0.00123561 6.56551e-14)
(-5.5381e-10 0.00123963 6.56553e-14)
(-5.55605e-10 0.00124365 6.56551e-14)
(-5.574e-10 0.00124767 6.56553e-14)
(-5.59195e-10 0.00125168 6.56551e-14)
(-5.6099e-10 0.0012557 6.56554e-14)
(-5.62786e-10 0.00125972 6.56551e-14)
(-5.64581e-10 0.00126374 6.56554e-14)
(-5.66376e-10 0.00126776 6.56551e-14)
(-5.68171e-10 0.00127178 6.56554e-14)
(-5.69966e-10 0.00127579 6.56551e-14)
(-5.71761e-10 0.00127981 6.56554e-14)
(-5.73557e-10 0.00128383 6.5655e-14)
(-5.75352e-10 0.00128785 6.56554e-14)
(-5.77147e-10 0.00129187 6.5655e-14)
(-5.78942e-10 0.00129589 6.56554e-14)
(-5.80737e-10 0.0012999 6.5655e-14)
(-5.82532e-10 0.00130392 6.56554e-14)
(-5.84328e-10 0.00130794 6.5655e-14)
(-5.86123e-10 0.00131196 6.56554e-14)
(-5.87918e-10 0.00131598 6.5655e-14)
(-5.89713e-10 0.00132 6.56554e-14)
(-5.91508e-10 0.00132401 6.5655e-14)
(-5.93303e-10 0.00132803 6.56554e-14)
(-5.95099e-10 0.00133205 6.5655e-14)
(-5.96894e-10 0.00133607 6.56554e-14)
(-5.98689e-10 0.00134009 6.5655e-14)
(-6.00484e-10 0.0013441 6.56554e-14)
(-6.02279e-10 0.00134812 6.5655e-14)
(-6.04074e-10 0.00135214 6.56554e-14)
(-6.0587e-10 0.00135616 6.5655e-14)
(-6.07665e-10 0.00136018 6.56554e-14)
(-6.0946e-10 0.0013642 6.5655e-14)
(-6.11255e-10 0.00136821 6.56554e-14)
(-6.1305e-10 0.00137223 6.5655e-14)
(-6.14845e-10 0.00137625 6.56554e-14)
(-6.16641e-10 0.00138027 6.5655e-14)
(-6.18436e-10 0.00138429 6.56554e-14)
(-6.20231e-10 0.00138831 6.5655e-14)
(-6.22026e-10 0.00139232 6.56554e-14)
(-6.23821e-10 0.00139634 6.5655e-14)
(-6.25616e-10 0.00140036 6.56554e-14)
(-6.27411e-10 0.00140438 6.5655e-14)
(-6.29207e-10 0.0014084 6.56554e-14)
(-6.31002e-10 0.00141241 6.5655e-14)
(-6.32797e-10 0.00141643 6.56554e-14)
(-6.34592e-10 0.00142045 6.5655e-14)
(-6.36387e-10 0.00142447 6.56554e-14)
(-6.38182e-10 0.00142849 6.5655e-14)
(-6.39978e-10 0.00143251 6.56554e-14)
(-6.41773e-10 0.00143652 6.5655e-14)
(-6.43568e-10 0.00144054 6.56554e-14)
(-6.45363e-10 0.00144456 6.56549e-14)
(-6.47158e-10 0.00144858 6.56554e-14)
(-6.48953e-10 0.0014526 6.56549e-14)
(-6.50749e-10 0.00145662 6.56554e-14)
(-6.52544e-10 0.00146063 6.56549e-14)
(-6.54339e-10 0.00146465 6.56554e-14)
(-6.56134e-10 0.00146867 6.56549e-14)
(-6.57929e-10 0.00147269 6.56554e-14)
(-6.59724e-10 0.00147671 6.56549e-14)
(-6.6152e-10 0.00148072 6.56554e-14)
(-6.63315e-10 0.00148474 6.56549e-14)
(-6.6511e-10 0.00148876 6.56554e-14)
(-6.66905e-10 0.00149278 6.56549e-14)
(-6.687e-10 0.0014968 6.56554e-14)
(-6.70495e-10 0.00150082 6.56549e-14)
(-6.72291e-10 0.00150483 6.56554e-14)
(-6.74086e-10 0.00150885 6.56549e-14)
(-6.75881e-10 0.00151287 6.56554e-14)
(-6.77676e-10 0.00151689 6.56549e-14)
(-6.79471e-10 0.00152091 6.56554e-14)
(-6.81266e-10 0.00152493 6.56549e-14)
(-6.83062e-10 0.00152894 6.56554e-14)
(-6.84857e-10 0.00153296 6.56549e-14)
(-6.86652e-10 0.00153698 6.56554e-14)
(-6.88447e-10 0.001541 6.56549e-14)
(-6.90242e-10 0.00154502 6.56554e-14)
(-6.92037e-10 0.00154903 6.56549e-14)
(-6.93832e-10 0.00155305 6.56554e-14)
(-6.95628e-10 0.00155707 6.56549e-14)
(-6.97423e-10 0.00156109 6.56554e-14)
(-6.99218e-10 0.00156511 6.56549e-14)
(-7.01013e-10 0.00156913 6.56554e-14)
(-7.02808e-10 0.00157314 6.56549e-14)
(-7.04603e-10 0.00157716 6.56554e-14)
(-7.06399e-10 0.00158118 6.56549e-14)
(-7.08194e-10 0.0015852 6.56554e-14)
(-7.09989e-10 0.00158922 6.56549e-14)
(-7.11784e-10 0.00159324 6.56555e-14)
(-7.13579e-10 0.00159725 6.56549e-14)
(-7.15374e-10 0.00160127 6.56555e-14)
(-7.1717e-10 0.00160529 6.56549e-14)
(-7.18965e-10 0.00160931 6.56555e-14)
(-7.2076e-10 0.00161333 6.56549e-14)
(-7.22555e-10 0.00161735 6.56555e-14)
(-7.2435e-10 0.00162136 6.56549e-14)
(-7.26145e-10 0.00162538 6.56555e-14)
(-7.27941e-10 0.0016294 6.56549e-14)
(-7.29736e-10 0.00163342 6.56555e-14)
(-7.31531e-10 0.00163744 6.56549e-14)
(-7.33326e-10 0.00164145 6.56555e-14)
(-7.35121e-10 0.00164547 6.56549e-14)
(-7.36916e-10 0.00164949 6.56555e-14)
(-7.38712e-10 0.00165351 6.56549e-14)
(-7.40507e-10 0.00165753 6.56555e-14)
(-7.42302e-10 0.00166155 6.56549e-14)
(-7.44097e-10 0.00166556 6.56555e-14)
(-7.45892e-10 0.00166958 6.56549e-14)
(-7.47687e-10 0.0016736 6.56555e-14)
(-7.49483e-10 0.00167762 6.56549e-14)
(-7.51278e-10 0.00168164 6.56555e-14)
(-7.53073e-10 0.00168566 6.56548e-14)
(-7.54868e-10 0.00168967 6.56555e-14)
(-7.56663e-10 0.00169369 6.56548e-14)
(-7.58458e-10 0.00169771 6.56555e-14)
(-7.60254e-10 0.00170173 6.56548e-14)
(-7.62049e-10 0.00170575 6.56555e-14)
(-7.63844e-10 0.00170976 6.56548e-14)
(-7.65639e-10 0.00171378 6.56555e-14)
(-7.67434e-10 0.0017178 6.56548e-14)
(-7.69229e-10 0.00172182 6.56555e-14)
(-7.71025e-10 0.00172584 6.56548e-14)
(-7.7282e-10 0.00172986 6.56555e-14)
(-7.74615e-10 0.00173387 6.56548e-14)
(-7.7641e-10 0.00173789 6.56555e-14)
(-7.78205e-10 0.00174191 6.56548e-14)
(-7.8e-10 0.00174593 6.56555e-14)
(-7.81796e-10 0.00174995 6.56548e-14)
(-7.83591e-10 0.00175397 6.56555e-14)
(-7.85386e-10 0.00175798 6.56548e-14)
(-7.87181e-10 0.001762 6.56555e-14)
(-7.88976e-10 0.00176602 6.56548e-14)
(-7.90771e-10 0.00177004 6.56555e-14)
(-7.92566e-10 0.00177406 6.56548e-14)
(-7.94362e-10 0.00177807 6.56555e-14)
(-7.96157e-10 0.00178209 6.56548e-14)
(-7.97952e-10 0.00178611 6.56555e-14)
(-7.99747e-10 0.00179013 6.56548e-14)
(-8.01542e-10 0.00179415 6.56555e-14)
(-8.03337e-10 0.00179817 6.56548e-14)
(-8.05133e-10 0.00180218 6.56555e-14)
(-8.06928e-10 0.0018062 6.56548e-14)
(-8.08723e-10 0.00181022 6.56555e-14)
(-8.10518e-10 0.00181424 6.56548e-14)
(-8.12313e-10 0.00181826 6.56555e-14)
(-8.14108e-10 0.00182228 6.56548e-14)
(-8.15904e-10 0.00182629 6.56555e-14)
(-8.17699e-10 0.00183031 6.56548e-14)
(-8.19494e-10 0.00183433 6.56555e-14)
(-8.21289e-10 0.00183835 6.56548e-14)
(-8.23084e-10 0.00184237 6.56555e-14)
(-8.24879e-10 0.00184639 6.56548e-14)
(-8.26675e-10 0.0018504 6.56555e-14)
(-8.2847e-10 0.00185442 6.56548e-14)
(-8.30265e-10 0.00185844 6.56555e-14)
(-8.3206e-10 0.00186246 6.56548e-14)
(-8.33855e-10 0.00186648 6.56555e-14)
(-8.3565e-10 0.00187049 6.56548e-14)
(-8.37446e-10 0.00187451 6.56555e-14)
(-8.39241e-10 0.00187853 6.56548e-14)
(-8.41036e-10 0.00188255 6.56555e-14)
(-8.42831e-10 0.00188657 6.56548e-14)
(-8.44626e-10 0.00189059 6.56555e-14)
(-8.46421e-10 0.0018946 6.56548e-14)
(-8.48217e-10 0.00189862 6.56555e-14)
(-8.50012e-10 0.00190264 6.56548e-14)
(-8.51807e-10 0.00190666 6.56555e-14)
(-8.53602e-10 0.00191068 6.56548e-14)
(-8.55397e-10 0.0019147 6.56555e-14)
(-8.57192e-10 0.00191871 6.56548e-14)
(-8.58988e-10 0.00192273 6.56555e-14)
(-8.60783e-10 0.00192675 6.56548e-14)
(-8.62578e-10 0.00193077 6.56555e-14)
(-8.64373e-10 0.00193479 6.56548e-14)
(-8.66168e-10 0.0019388 6.56555e-14)
(-8.67963e-10 0.00194282 6.56548e-14)
(-8.69759e-10 0.00194684 6.56555e-14)
(-8.71554e-10 0.00195086 6.56548e-14)
(-8.73349e-10 0.00195488 6.56555e-14)
(-8.75144e-10 0.0019589 6.56548e-14)
(-8.76939e-10 0.00196291 6.56555e-14)
(-8.78734e-10 0.00196693 6.56548e-14)
(-8.8053e-10 0.00197095 6.56555e-14)
(-8.82325e-10 0.00197497 6.56548e-14)
(-8.8412e-10 0.00197899 6.56555e-14)
(-8.85915e-10 0.00198301 6.56548e-14)
(-8.8771e-10 0.00198702 6.56555e-14)
(-8.89505e-10 0.00199104 6.56548e-14)
(-8.91301e-10 0.00199506 6.56555e-14)
(-8.93096e-10 0.00199908 6.56547e-14)
(-8.94891e-10 0.0020031 6.56555e-14)
(-8.96686e-10 0.00200711 6.56548e-14)
(-8.98481e-10 0.00201113 6.56555e-14)
(-9.00276e-10 0.00201515 6.56548e-14)
(-9.02071e-10 0.00201917 6.56555e-14)
(-9.03867e-10 0.00202319 6.56547e-14)
(-9.05662e-10 0.00202721 6.56555e-14)
(-9.07457e-10 0.00203122 6.56547e-14)
(-9.09252e-10 0.00203524 6.56555e-14)
(-9.11047e-10 0.00203926 6.56547e-14)
(-9.12842e-10 0.00204328 6.56555e-14)
(-9.14638e-10 0.0020473 6.56547e-14)
(-9.16433e-10 0.00205132 6.56555e-14)
(-9.18228e-10 0.00205533 6.56547e-14)
(-9.20023e-10 0.00205935 6.56555e-14)
(-9.21818e-10 0.00206337 6.56547e-14)
(-9.23613e-10 0.00206739 6.56555e-14)
(-9.25409e-10 0.00207141 6.56547e-14)
(-9.27204e-10 0.00207543 6.56555e-14)
(-9.28999e-10 0.00207944 6.56547e-14)
(-9.30794e-10 0.00208346 6.56555e-14)
(-9.32589e-10 0.00208748 6.56547e-14)
(-9.34384e-10 0.0020915 6.56555e-14)
(-9.3618e-10 0.00209552 6.56547e-14)
(-9.37975e-10 0.00209953 6.56555e-14)
(-9.3977e-10 0.00210355 6.56547e-14)
(-9.41565e-10 0.00210757 6.56556e-14)
(-9.4336e-10 0.00211159 6.56547e-14)
(-9.45155e-10 0.00211561 6.56556e-14)
(-9.46951e-10 0.00211963 6.56547e-14)
(-9.48746e-10 0.00212364 6.56556e-14)
(-9.50541e-10 0.00212766 6.56547e-14)
(-9.52336e-10 0.00213168 6.56556e-14)
(-9.54131e-10 0.0021357 6.56547e-14)
(-9.55926e-10 0.00213972 6.56556e-14)
(-9.57722e-10 0.00214374 6.56547e-14)
(-9.59517e-10 0.00214775 6.56556e-14)
(-9.61312e-10 0.00215177 6.56547e-14)
(-9.63107e-10 0.00215579 6.56556e-14)
(-9.64902e-10 0.00215981 6.56547e-14)
(-9.66697e-10 0.00216383 6.56556e-14)
(-9.68493e-10 0.00216784 6.56547e-14)
(-9.70288e-10 0.00217186 6.56556e-14)
(-9.72083e-10 0.00217588 6.56547e-14)
(-9.73878e-10 0.0021799 6.56556e-14)
(-9.75673e-10 0.00218392 6.56547e-14)
(-9.77468e-10 0.00218794 6.56556e-14)
(-9.79264e-10 0.00219195 6.56547e-14)
(-9.81059e-10 0.00219597 6.56556e-14)
(-9.82854e-10 0.00219999 6.56547e-14)
(-9.84649e-10 0.00220401 6.56556e-14)
(-9.86444e-10 0.00220803 6.56547e-14)
(-9.88239e-10 0.00221205 6.56556e-14)
(-9.90035e-10 0.00221606 6.56547e-14)
(-9.9183e-10 0.00222008 6.56556e-14)
(-9.93625e-10 0.0022241 6.56547e-14)
(-9.9542e-10 0.00222812 6.56556e-14)
(-9.97215e-10 0.00223214 6.56547e-14)
(-9.9901e-10 0.00223615 6.56556e-14)
(-1.00081e-09 0.00224017 6.56547e-14)
(-1.0026e-09 0.00224419 6.56556e-14)
(-1.0044e-09 0.00224821 6.56547e-14)
(-1.00619e-09 0.00225223 6.56556e-14)
(-1.00799e-09 0.00225625 6.56547e-14)
(-1.00978e-09 0.00226026 6.56556e-14)
(-1.01158e-09 0.00226428 6.56547e-14)
(-1.01337e-09 0.0022683 6.56556e-14)
(-1.01517e-09 0.00227232 6.56547e-14)
(-1.01696e-09 0.00227634 6.56556e-14)
(-1.01876e-09 0.00228036 6.56547e-14)
(-1.02055e-09 0.00228437 6.56556e-14)
(-1.02235e-09 0.00228839 6.56547e-14)
(-1.02414e-09 0.00229241 6.56556e-14)
(-1.02594e-09 0.00229643 6.56547e-14)
(-1.02773e-09 0.00230045 6.56556e-14)
(-1.02953e-09 0.00230447 6.56547e-14)
(-1.03132e-09 0.00230848 6.56556e-14)
(-1.03312e-09 0.0023125 6.56547e-14)
(-1.03491e-09 0.00231652 6.56556e-14)
(-1.03671e-09 0.00232054 6.56547e-14)
(-1.0385e-09 0.00232456 6.56556e-14)
(-1.0403e-09 0.00232857 6.56547e-14)
(-1.04209e-09 0.00233259 6.56556e-14)
(-1.04389e-09 0.00233661 6.56547e-14)
(-1.04568e-09 0.00234063 6.56556e-14)
(-1.04748e-09 0.00234465 6.56547e-14)
(-1.04927e-09 0.00234867 6.56556e-14)
(-1.05107e-09 0.00235268 6.56547e-14)
(-1.05287e-09 0.0023567 6.56556e-14)
(-1.05466e-09 0.00236072 6.56547e-14)
(-1.05646e-09 0.00236474 6.56556e-14)
(-1.05825e-09 0.00236876 6.56547e-14)
(-1.06005e-09 0.00237278 6.56556e-14)
(-1.06184e-09 0.00237679 6.56547e-14)
(-1.06364e-09 0.00238081 6.56556e-14)
(-1.06543e-09 0.00238483 6.56547e-14)
(-1.06723e-09 0.00238885 6.56556e-14)
(-1.06902e-09 0.00239287 6.56547e-14)
(-1.07082e-09 0.00239688 6.56556e-14)
(-1.07261e-09 0.0024009 6.56547e-14)
(-1.07441e-09 0.00240492 6.56556e-14)
(-1.0762e-09 0.00240894 6.56546e-14)
(-1.078e-09 0.00241296 6.56556e-14)
(-1.07979e-09 0.00241698 6.56546e-14)
(-1.08159e-09 0.00242099 6.56556e-14)
(-1.08338e-09 0.00242501 6.56546e-14)
(-1.08518e-09 0.00242903 6.56556e-14)
(-1.08697e-09 0.00243305 6.56547e-14)
(-1.08877e-09 0.00243707 6.56556e-14)
(-1.09056e-09 0.00244109 6.56546e-14)
(-1.09236e-09 0.0024451 6.56556e-14)
(-1.09415e-09 0.00244912 6.56546e-14)
(-1.09595e-09 0.00245314 6.56556e-14)
(-1.09774e-09 0.00245716 6.56546e-14)
(-1.09954e-09 0.00246118 6.56556e-14)
(-1.10133e-09 0.00246519 6.56546e-14)
(-1.10313e-09 0.00246921 6.56556e-14)
(-1.10493e-09 0.00247323 6.56546e-14)
(-1.10672e-09 0.00247725 6.56556e-14)
(-1.10852e-09 0.00248127 6.56546e-14)
(-1.11031e-09 0.00248529 6.56556e-14)
(-1.11211e-09 0.0024893 6.56546e-14)
(-1.1139e-09 0.00249332 6.56556e-14)
(-1.1157e-09 0.00249734 6.56546e-14)
(-1.11749e-09 0.00250136 6.56556e-14)
(-1.11929e-09 0.00250538 6.56546e-14)
(-1.12108e-09 0.0025094 6.56556e-14)
(-1.12288e-09 0.00251341 6.56546e-14)
(-1.12467e-09 0.00251743 6.56556e-14)
(-1.12647e-09 0.00252145 6.56546e-14)
(-1.12826e-09 0.00252547 6.56556e-14)
(-1.13006e-09 0.00252949 6.56546e-14)
(-1.13185e-09 0.00253351 6.56556e-14)
(-1.13365e-09 0.00253752 6.56546e-14)
(-1.13544e-09 0.00254154 6.56556e-14)
(-1.13724e-09 0.00254556 6.56546e-14)
(-1.13903e-09 0.00254958 6.56556e-14)
(-1.14083e-09 0.0025536 6.56546e-14)
(-1.14262e-09 0.00255761 6.56556e-14)
(-1.14442e-09 0.00256163 6.56546e-14)
(-1.14621e-09 0.00256565 6.56556e-14)
(-1.14801e-09 0.00256967 6.56546e-14)
(-1.1498e-09 0.00257369 6.56556e-14)
(-1.1516e-09 0.00257771 6.56546e-14)
(-1.15339e-09 0.00258172 6.56556e-14)
(-1.15519e-09 0.00258574 6.56546e-14)
(-1.15698e-09 0.00258976 6.56556e-14)
(-1.15878e-09 0.00259378 6.56546e-14)
(-1.16058e-09 0.0025978 6.56556e-14)
(-1.16237e-09 0.00260182 6.56546e-14)
(-1.16417e-09 0.00260583 6.56556e-14)
(-1.16596e-09 0.00260985 6.56546e-14)
(-1.16776e-09 0.00261387 6.56556e-14)
(-1.16955e-09 0.00261789 6.56546e-14)
(-1.17135e-09 0.00262191 6.56556e-14)
(-1.17314e-09 0.00262592 6.56546e-14)
(-1.17494e-09 0.00262994 6.56556e-14)
(-1.17673e-09 0.00263396 6.56546e-14)
(-1.17853e-09 0.00263798 6.56556e-14)
(-1.18032e-09 0.002642 6.56546e-14)
(-1.18212e-09 0.00264602 6.56556e-14)
(-1.18391e-09 0.00265003 6.56546e-14)
(-1.18571e-09 0.00265405 6.56556e-14)
(-1.1875e-09 0.00265807 6.56546e-14)
(-1.1893e-09 0.00266209 6.56556e-14)
(-1.19109e-09 0.00266611 6.56546e-14)
(-1.19289e-09 0.00267013 6.56556e-14)
(-1.19468e-09 0.00267414 6.56546e-14)
(-1.19648e-09 0.00267816 6.56557e-14)
(-1.19827e-09 0.00268218 6.56546e-14)
(-1.20007e-09 0.0026862 6.56557e-14)
(-1.20186e-09 0.00269022 6.56546e-14)
(-1.20366e-09 0.00269423 6.56556e-14)
(-1.20545e-09 0.00269825 6.56546e-14)
(-1.20725e-09 0.00270227 6.56557e-14)
(-1.20904e-09 0.00270629 6.56546e-14)
(-1.21084e-09 0.00271031 6.56557e-14)
(-1.21263e-09 0.00271433 6.56546e-14)
(-1.21443e-09 0.00271834 6.56557e-14)
(-1.21623e-09 0.00272236 6.56546e-14)
(-1.21802e-09 0.00272638 6.56557e-14)
(-1.21982e-09 0.0027304 6.56546e-14)
(-1.22161e-09 0.00273442 6.56557e-14)
(-1.22341e-09 0.00273844 6.56546e-14)
(-1.2252e-09 0.00274245 6.56557e-14)
(-1.227e-09 0.00274647 6.56546e-14)
(-1.22879e-09 0.00275049 6.56557e-14)
(-1.23059e-09 0.00275451 6.56546e-14)
(-1.23238e-09 0.00275853 6.56557e-14)
(-1.23418e-09 0.00276255 6.56546e-14)
(-1.23597e-09 0.00276656 6.56557e-14)
(-1.23777e-09 0.00277058 6.56546e-14)
(-1.23956e-09 0.0027746 6.56557e-14)
(-1.24136e-09 0.00277862 6.56546e-14)
(-1.24315e-09 0.00278264 6.56557e-14)
(-1.24495e-09 0.00278665 6.56546e-14)
(-1.24674e-09 0.00279067 6.56557e-14)
(-1.24854e-09 0.00279469 6.56546e-14)
(-1.25033e-09 0.00279871 6.56557e-14)
(-1.25213e-09 0.00280273 6.56546e-14)
(-1.25392e-09 0.00280675 6.56557e-14)
(-1.25572e-09 0.00281076 6.56546e-14)
(-1.25751e-09 0.00281478 6.56557e-14)
(-1.25931e-09 0.0028188 6.56546e-14)
(-1.2611e-09 0.00282282 6.56557e-14)
(-1.2629e-09 0.00282684 6.56546e-14)
(-1.26469e-09 0.00283086 6.56557e-14)
(-1.26649e-09 0.00283487 6.56546e-14)
(-1.26829e-09 0.00283889 6.56557e-14)
(-1.27008e-09 0.00284291 6.56546e-14)
(-1.27188e-09 0.00284693 6.56557e-14)
(-1.27367e-09 0.00285095 6.56546e-14)
(-1.27547e-09 0.00285496 6.56557e-14)
(-1.27726e-09 0.00285898 6.56546e-14)
(-1.27906e-09 0.002863 6.56557e-14)
(-1.28085e-09 0.00286702 6.56546e-14)
(-1.28265e-09 0.00287104 6.56557e-14)
(-1.28444e-09 0.00287506 6.56546e-14)
(-1.28624e-09 0.00287907 6.56557e-14)
(-1.28803e-09 0.00288309 6.56545e-14)
(-1.28983e-09 0.00288711 6.56557e-14)
(-1.29162e-09 0.00289113 6.56546e-14)
(-1.29342e-09 0.00289515 6.56557e-14)
(-1.29521e-09 0.00289917 6.56546e-14)
(-1.29701e-09 0.00290318 6.56557e-14)
(-1.2988e-09 0.0029072 6.56546e-14)
(-1.3006e-09 0.00291122 6.56557e-14)
(-1.30239e-09 0.00291524 6.56545e-14)
(-1.30419e-09 0.00291926 6.56557e-14)
(-1.30598e-09 0.00292327 6.56545e-14)
(-1.30778e-09 0.00292729 6.56557e-14)
(-1.30957e-09 0.00293131 6.56545e-14)
(-1.31137e-09 0.00293533 6.56557e-14)
(-1.31316e-09 0.00293935 6.56545e-14)
(-1.31496e-09 0.00294337 6.56557e-14)
(-1.31675e-09 0.00294738 6.56545e-14)
(-1.31855e-09 0.0029514 6.56557e-14)
(-1.32034e-09 0.00295542 6.56545e-14)
(-1.32214e-09 0.00295944 6.56557e-14)
(-1.32394e-09 0.00296346 6.56545e-14)
(-1.32573e-09 0.00296748 6.56557e-14)
(-1.32753e-09 0.00297149 6.56545e-14)
(-1.32932e-09 0.00297551 6.56557e-14)
(-1.33112e-09 0.00297953 6.56545e-14)
(-1.33291e-09 0.00298355 6.56557e-14)
(-1.33471e-09 0.00298757 6.56545e-14)
(-1.3365e-09 0.00299159 6.56557e-14)
(-1.3383e-09 0.0029956 6.56545e-14)
(-1.34009e-09 0.00299962 6.56557e-14)
(-1.34189e-09 0.00300364 6.56545e-14)
(-1.34368e-09 0.00300766 6.56557e-14)
(-1.34548e-09 0.00301168 6.56545e-14)
(-1.34727e-09 0.00301569 6.56557e-14)
(-1.34907e-09 0.00301971 6.56545e-14)
(-1.35086e-09 0.00302373 6.56557e-14)
(-1.35266e-09 0.00302775 6.56545e-14)
(-1.35445e-09 0.00303177 6.56557e-14)
(-1.35625e-09 0.00303579 6.56545e-14)
(-1.35804e-09 0.0030398 6.56557e-14)
(-1.35984e-09 0.00304382 6.56545e-14)
(-1.36163e-09 0.00304784 6.56557e-14)
(-1.36343e-09 0.00305186 6.56545e-14)
(-1.36522e-09 0.00305588 6.56557e-14)
(-1.36702e-09 0.0030599 6.56545e-14)
(-1.36881e-09 0.00306391 6.56557e-14)
(-1.37061e-09 0.00306793 6.56545e-14)
(-1.3724e-09 0.00307195 6.56557e-14)