/*--------------------------------*- C++ -*----------------------------------*\
| =========                 |                                                 |
| \\      /  F ield         | OpenFOAM: The Open Source CFD Toolbox           |
|  \\    /   O peration     | Version:  2206                                  |
|   \\  /    A nd           | Website:  www.openfoam.com                      |
|    \\/     M anipulation  |                                                 |
\*---------------------------------------------------------------------------*/
FoamFile
{
    version     2.0;
    format      ascii;
    arch        "LSB;label=32;scalar=64";
    class       volVectorField;
    location    "180";
    object      U;
}
// * * * * * * * * * * * * * * * * * * * * * * * * * * * * * * * * * * * * * //

dimensions      [0 1 -1 0 0 0 0];

internalField   nonuniform List<vector> 
100000
(
(-7.12571e-13 6.04702e-06 -8.66439e-12)
(-5.25047e-12 1.09265e-05 -3.97118e-14)
(-5.96466e-12 2.00176e-05 1.31425e-13)
(-1.49307e-11 2.9784e-05 1.19993e-13)
(-1.54683e-11 3.86865e-05 1.17836e-13)
(-1.39532e-11 4.07278e-05 5.94486e-14)
(-1.94994e-11 4.98152e-05 1.37726e-13)
(-2.34264e-11 5.96866e-05 1.4234e-13)
(-2.90635e-11 6.95458e-05 1.36192e-13)
(-3.33983e-11 7.85207e-05 7.40627e-14)
(-3.15403e-11 8.05053e-05 7.2882e-14)
(-3.56379e-11 8.95714e-05 1.33421e-13)
(-4.06237e-11 9.94465e-05 1.39395e-13)
(-4.5438e-11 0.000109313 1.3654e-13)
(-4.98162e-11 0.000118308 7.75935e-14)
(-4.77381e-11 0.000120282 7.25205e-14)
(-5.2215e-11 0.000129338 1.34833e-13)
(-5.66806e-11 0.000139213 1.37645e-13)
(-6.21107e-11 0.000149082 1.38216e-13)
(-6.56118e-11 0.000158086 7.58778e-14)
(-6.45762e-11 0.000160057 7.41124e-14)
(-6.78453e-11 0.000169107 1.34207e-13)
(-7.37057e-11 0.000178986 1.39621e-13)
(-7.75621e-11 0.00018892 1.40744e-13)
(-8.34285e-11 0.000198794 1.38363e-13)
(-8.67655e-11 0.000207805 7.71915e-14)
(-8.56067e-11 0.000209774 7.43564e-14)
(-8.91939e-11 0.000218819 1.36538e-13)
(-9.4517e-11 0.000228694 1.39399e-13)
(-9.91263e-11 0.000238565 1.38343e-13)
(-1.0348e-10 0.000247579 7.65885e-14)
(-1.015e-10 0.000249547 7.4637e-14)
(-1.0576e-10 0.00025859 1.36393e-13)
(-1.10535e-10 0.000268465 1.39294e-13)
(-1.15586e-10 0.000278336 1.38027e-13)
(-1.19578e-10 0.000287352 7.63498e-14)
(-1.17895e-10 0.000289319 7.47372e-14)
(-1.21919e-10 0.000298361 1.36308e-13)
(-1.26884e-10 0.000308235 1.39248e-13)
(-1.31778e-10 0.000318107 1.3771e-13)
(-1.35895e-10 0.000327125 7.62825e-14)
(-1.34115e-10 0.000329092 7.46709e-14)
(-1.38219e-10 0.000338132 1.36403e-13)
(-1.4312e-10 0.000348006 1.39036e-13)
(-1.48062e-10 0.000357878 1.37648e-13)
(-1.52139e-10 0.000366897 7.60388e-14)
(-1.50393e-10 0.000368864 7.48113e-14)
(-1.54474e-10 0.000377903 1.36283e-13)
(-1.5939e-10 0.000387778 1.39058e-13)
(-1.64322e-10 0.00039765 1.3741e-13)
(-1.68402e-10 0.00040667 7.60263e-14)
(-1.66661e-10 0.000408637 7.47472e-14)
(-1.70733e-10 0.000417674 1.36356e-13)
(-1.75665e-10 0.000427549 1.38915e-13)
(-1.80573e-10 0.000437421 1.37367e-13)
(-1.84682e-10 0.000446442 7.58755e-14)
(-1.82904e-10 0.000448409 7.48222e-14)
(-1.87027e-10 0.000457446 1.36302e-13)
(-1.91894e-10 0.00046732 1.38894e-13)
(-1.9688e-10 0.000477193 1.37252e-13)
(-2.00891e-10 0.000486214 7.58081e-14)
(-1.99236e-10 0.000488181 7.48507e-14)
(-2.03209e-10 0.000497217 1.36262e-13)
(-2.0826e-10 0.000507091 1.38904e-13)
(-2.13021e-10 0.000516964 1.37087e-13)
(-2.17305e-10 0.000525986 7.58642e-14)
(-2.15318e-10 0.000527953 7.47068e-14)
(-2.19698e-10 0.000536989 1.36461e-13)
(-2.24253e-10 0.000546863 1.38601e-13)
(-2.29615e-10 0.000556735 1.37351e-13)
(-2.33169e-10 0.000565758 7.53972e-14)
(-2.32068e-10 0.000567725 7.52344e-14)
(-2.35376e-10 0.00057676 1.35849e-13)
(-2.41231e-10 0.000586638 1.39936e-13)
(-2.45091e-10 0.000596573 1.40456e-13)
(-2.50952e-10 0.00060645 1.36962e-13)
(-2.54273e-10 0.000615473 7.63512e-14)
(-2.53146e-10 0.00061744 7.47307e-14)
(-2.56714e-10 0.000626474 1.37028e-13)
(-2.62059e-10 0.000636349 1.38914e-13)
(-2.66639e-10 0.000646221 1.37615e-13)
(-2.71011e-10 0.000655245 7.56661e-14)
(-2.69021e-10 0.000657211 7.52481e-14)
(-2.73298e-10 0.000666246 1.36562e-13)
(-2.78062e-10 0.00067612 1.39227e-13)
(-2.83118e-10 0.000685993 1.3724e-13)
(-2.87098e-10 0.000695017 7.58732e-14)
(-2.85431e-10 0.000696983 7.50291e-14)
(-2.89445e-10 0.000706018 1.36715e-13)
(-2.94423e-10 0.000715892 1.39029e-13)
(-2.99302e-10 0.000725764 1.37307e-13)
(-3.03427e-10 0.000734789 7.57216e-14)
(-3.01642e-10 0.000736755 7.51167e-14)
(-3.05755e-10 0.000745789 1.36613e-13)
(-3.1065e-10 0.000755663 1.39054e-13)
(-3.15598e-10 0.000765536 1.37196e-13)
(-3.19662e-10 0.000774561 7.57292e-14)
(-3.17933e-10 0.000776527 7.5075e-14)
(-3.21996e-10 0.000785561 1.36621e-13)
(-3.26938e-10 0.000795435 1.38995e-13)
(-3.31838e-10 0.000805308 1.37161e-13)
(-3.35952e-10 0.000814333 7.56869e-14)
(-3.34168e-10 0.000816299 7.5071e-14)
(-3.38294e-10 0.000825332 1.36611e-13)
(-3.43163e-10 0.000835206 1.38942e-13)
(-3.48149e-10 0.000845079 1.37148e-13)
(-3.5216e-10 0.000854104 7.56103e-14)
(-3.50502e-10 0.00085607 7.5129e-14)
(-3.54476e-10 0.000865104 1.36513e-13)
(-3.59529e-10 0.000874978 1.39015e-13)
(-3.6429e-10 0.000884851 1.36976e-13)
(-3.68573e-10 0.000893876 7.57443e-14)
(-3.66584e-10 0.000895842 7.49243e-14)
(-3.70963e-10 0.000904875 1.36746e-13)
(-3.75524e-10 0.000914749 1.38682e-13)
(-3.80882e-10 0.000924622 1.37312e-13)
(-3.8444e-10 0.000933648 7.52634e-14)
(-3.83332e-10 0.000935614 7.54778e-14)
(-3.86643e-10 0.000944647 1.36083e-13)
(-3.92499e-10 0.000954525 1.40064e-13)
(-3.9636e-10 0.00096446 1.40372e-13)
(-4.02219e-10 0.000974337 1.36782e-13)
(-4.05539e-10 0.000983363 7.61534e-14)
(-4.04415e-10 0.000985329 7.48645e-14)
(-4.07981e-10 0.000994361 1.37099e-13)
(-4.13329e-10 0.00100424 1.38885e-13)
(-4.17905e-10 0.00101411 1.37439e-13)
(-4.22278e-10 0.00102313 7.55242e-14)
(-4.20288e-10 0.0010251 7.53525e-14)
(-4.24566e-10 0.00103413 1.36665e-13)
(-4.2933e-10 0.00104401 1.39194e-13)
(-4.34385e-10 0.00105388 1.37117e-13)
(-4.38365e-10 0.00106291 7.57334e-14)
(-4.36698e-10 0.00106487 7.51498e-14)
(-4.40713e-10 0.0010739 1.36806e-13)
(-4.4569e-10 0.00108378 1.3903e-13)
(-4.50571e-10 0.00109365 1.37193e-13)
(-4.54692e-10 0.00110268 7.56149e-14)
(-4.52911e-10 0.00110464 7.52224e-14)
(-4.57019e-10 0.00111368 1.36719e-13)
(-4.61922e-10 0.00112355 1.3906e-13)
(-4.66861e-10 0.00113342 1.37111e-13)
(-4.70936e-10 0.00114245 7.56354e-14)
(-4.69191e-10 0.00114442 7.51783e-14)
(-4.73272e-10 0.00115345 1.36734e-13)
(-4.78194e-10 0.00116332 1.39004e-13)
(-4.8312e-10 0.00117319 1.37108e-13)
(-4.87201e-10 0.00118222 7.55867e-14)
(-4.85458e-10 0.00118419 7.52003e-14)
(-4.89532e-10 0.00119322 1.36688e-13)
(-4.94467e-10 0.00120309 1.3901e-13)
(-4.99372e-10 0.00121297 1.37046e-13)
(-5.03481e-10 0.00122199 7.56039e-14)
(-5.01701e-10 0.00122396 7.51533e-14)
(-5.05824e-10 0.00123299 1.3672e-13)
(-5.10697e-10 0.00124287 1.38933e-13)
(-5.15679e-10 0.00125274 1.37084e-13)
(-5.19692e-10 0.00126176 7.55089e-14)
(-5.18032e-10 0.00126373 7.52396e-14)
(-5.22008e-10 0.00127276 1.36595e-13)
(-5.2706e-10 0.00128264 1.39043e-13)
(-5.31822e-10 0.00129251 1.36901e-13)
(-5.36104e-10 0.00130154 7.56811e-14)
(-5.34116e-10 0.0013035 7.50069e-14)
(-5.38493e-10 0.00131253 1.36855e-13)
(-5.43056e-10 0.00132241 1.38693e-13)
(-5.48413e-10 0.00133228 1.37275e-13)
(-5.51972e-10 0.00134131 7.51856e-14)
(-5.50862e-10 0.00134327 7.55833e-14)
(-5.54174e-10 0.00135231 1.36169e-13)
(-5.6003e-10 0.00136218 1.40106e-13)
(-5.63891e-10 0.00137212 1.40306e-13)
(-5.6975e-10 0.001382 1.36675e-13)
(-5.73068e-10 0.00139102 7.60417e-14)
(-5.71947e-10 0.00139299 7.4922e-14)
(-5.75511e-10 0.00140202 1.37109e-13)
(-5.80861e-10 0.00141189 1.38852e-13)
(-5.85435e-10 0.00142177 1.37326e-13)
(-5.89809e-10 0.00143079 7.54444e-14)
(-5.87819e-10 0.00143276 7.53906e-14)
(-5.92098e-10 0.00144179 1.36701e-13)
(-5.96861e-10 0.00145167 1.39153e-13)
(-6.01916e-10 0.00146154 1.37036e-13)
(-6.05894e-10 0.00147057 7.56447e-14)
(-6.0423e-10 0.00147253 7.5207e-14)
(-6.08243e-10 0.00148156 1.36828e-13)
(-6.13223e-10 0.00149144 1.39016e-13)
(-6.181e-10 0.00150131 1.37106e-13)
(-6.22224e-10 0.00151034 7.55541e-14)
(-6.2044e-10 0.0015123 7.52602e-14)
(-6.24553e-10 0.00152134 1.36767e-13)
(-6.29449e-10 0.00153121 1.39031e-13)
(-6.34396e-10 0.00154108 1.37058e-13)
(-6.3846e-10 0.00155011 7.55565e-14)
(-6.3673e-10 0.00155208 7.5245e-14)
(-6.40793e-10 0.00156111 1.36754e-13)
(-6.45737e-10 0.00157098 1.39018e-13)
(-6.50636e-10 0.00158085 1.37025e-13)
(-6.5475e-10 0.00158988 7.55614e-14)
(-6.52966e-10 0.00159185 7.52129e-14)
(-6.57091e-10 0.00160088 1.36775e-13)
(-6.61962e-10 0.00161075 1.38956e-13)
(-6.66947e-10 0.00162063 1.3706e-13)
(-6.70958e-10 0.00162965 7.54794e-14)
(-6.69298e-10 0.00163162 7.5292e-14)
(-6.73274e-10 0.00164065 1.36659e-13)
(-6.78327e-10 0.00165052 1.39065e-13)
(-6.83089e-10 0.0016604 1.36888e-13)
(-6.87371e-10 0.00166942 7.56518e-14)
(-6.85382e-10 0.00167139 7.50631e-14)
(-6.89759e-10 0.00168042 1.36917e-13)
(-6.94323e-10 0.0016903 1.38722e-13)
(-6.99679e-10 0.00170017 1.37265e-13)
(-7.03239e-10 0.0017092 7.51626e-14)
(-7.02127e-10 0.00171116 7.56374e-14)
(-7.0544e-10 0.00172019 1.36233e-13)
(-7.11297e-10 0.00173007 1.40136e-13)
(-7.15158e-10 0.00174001 1.40295e-13)
(-7.21016e-10 0.00174988 1.36631e-13)
(-7.24334e-10 0.00175891 7.6e-14)
(-7.23214e-10 0.00176088 7.49531e-14)
(-7.26778e-10 0.00176991 1.37136e-13)
(-7.32128e-10 0.00177978 1.38845e-13)
(-7.36701e-10 0.00178966 1.37289e-13)
(-7.41075e-10 0.00179868 7.54057e-14)
(-7.39086e-10 0.00180065 7.54243e-14)
(-7.43364e-10 0.00180968 1.36728e-13)
(-7.48128e-10 0.00181955 1.39152e-13)
(-7.53182e-10 0.00182943 1.37003e-13)
(-7.57161e-10 0.00183845 7.56131e-14)
(-7.55495e-10 0.00184042 7.52379e-14)
(-7.5951e-10 0.00184945 1.36862e-13)
(-7.64489e-10 0.00185933 1.39015e-13)
(-7.69367e-10 0.0018692 1.37083e-13)
(-7.73489e-10 0.00187823 7.55205e-14)
(-7.71708e-10 0.00188019 7.52983e-14)
(-7.75816e-10 0.00188922 1.36795e-13)
(-7.8072e-10 0.0018991 1.39044e-13)
(-7.85658e-10 0.00190897 1.37029e-13)
(-7.89732e-10 0.001918 7.55396e-14)
(-7.87989e-10 0.00191996 7.52675e-14)
(-7.92069e-10 0.00192899 1.36804e-13)
(-7.96992e-10 0.00193887 1.3901e-13)
(-8.01917e-10 0.00194874 1.37029e-13)
(-8.05998e-10 0.00195777 7.55126e-14)
(-8.04255e-10 0.00195974 7.52786e-14)
(-8.08329e-10 0.00196877 1.36775e-13)
(-8.13264e-10 0.00197864 1.39014e-13)
(-8.18169e-10 0.00198851 1.36991e-13)
(-8.22278e-10 0.00199754 7.5528e-14)
(-8.20498e-10 0.00199951 7.52428e-14)
(-8.2462e-10 0.00200854 1.368e-13)
(-8.29495e-10 0.00201841 1.38956e-13)
(-8.34476e-10 0.00202829 1.3703e-13)
(-8.38489e-10 0.00203731 7.54514e-14)
(-8.36828e-10 0.00203928 7.53195e-14)
(-8.40805e-10 0.00204831 1.3669e-13)
(-8.45857e-10 0.00205818 1.39064e-13)
(-8.5062e-10 0.00206806 1.36867e-13)
(-8.54901e-10 0.00207708 7.5622e-14)
(-8.52912e-10 0.00207905 7.5096e-14)
(-8.57289e-10 0.00208808 1.36944e-13)
(-8.61854e-10 0.00209796 1.38729e-13)
(-8.67209e-10 0.00210783 1.37242e-13)
(-8.70769e-10 0.00211686 7.51406e-14)
(-8.69657e-10 0.00211882 7.56659e-14)
(-8.72971e-10 0.00212785 1.36267e-13)
(-8.78828e-10 0.00213773 1.40141e-13)
(-8.82688e-10 0.00214767 1.40275e-13)
(-8.88547e-10 0.00215754 1.36584e-13)
(-8.91864e-10 0.00216657 7.59647e-14)
(-8.90745e-10 0.00216854 7.4966e-14)
(-8.94308e-10 0.00217757 1.37143e-13)
(-8.99659e-10 0.00218744 1.38824e-13)
(-9.04231e-10 0.00219731 1.37251e-13)
(-9.08605e-10 0.00220634 7.5369e-14)
(-9.06616e-10 0.00220831 7.54425e-14)
(-9.10896e-10 0.00221734 1.36733e-13)
(-9.15658e-10 0.00222721 1.39139e-13)
(-9.20713e-10 0.00223709 1.36964e-13)
(-9.24691e-10 0.00224611 7.55833e-14)
(-9.23027e-10 0.00224808 7.52533e-14)
(-9.2704e-10 0.00225711 1.36873e-13)
(-9.32021e-10 0.00226698 1.39002e-13)
(-9.36896e-10 0.00227686 1.37051e-13)
(-9.41021e-10 0.00228589 7.54919e-14)
(-9.39237e-10 0.00228785 7.53148e-14)
(-9.4335e-10 0.00229688 1.36809e-13)
(-9.48247e-10 0.00230676 1.39032e-13)
(-9.53193e-10 0.00231663 1.37005e-13)
(-9.57257e-10 0.00232566 7.55069e-14)
(-9.55527e-10 0.00232762 7.5294e-14)
(-9.5959e-10 0.00233665 1.36807e-13)
(-9.64535e-10 0.00234653 1.39018e-13)
(-9.69433e-10 0.0023564 1.36986e-13)
(-9.73547e-10 0.00236543 7.55108e-14)
(-9.71762e-10 0.0023674 7.52693e-14)
(-9.75888e-10 0.00237643 1.36825e-13)
(-9.8076e-10 0.0023863 1.38967e-13)
(-9.85743e-10 0.00239617 1.37022e-13)
(-9.89755e-10 0.0024052 7.54399e-14)
(-9.88094e-10 0.00240717 7.53433e-14)
(-9.9207e-10 0.0024162 1.36718e-13)
(-9.97124e-10 0.00242607 1.39076e-13)
(-1.00189e-09 0.00243594 1.36863e-13)
(-1.00617e-09 0.00244497 7.56114e-14)
(-1.00418e-09 0.00244694 7.51205e-14)
(-1.00855e-09 0.00245597 1.36974e-13)
(-1.01312e-09 0.00246584 1.38742e-13)
(-1.01848e-09 0.00247572 1.37241e-13)
(-1.02204e-09 0.00248474 7.51309e-14)
(-1.02092e-09 0.00248671 7.56914e-14)
(-1.02424e-09 0.00249574 1.36296e-13)
(-1.03009e-09 0.00250562 1.40157e-13)
(-1.03395e-09 0.00251555 1.40271e-13)
(-1.03981e-09 0.00252543 1.36567e-13)
(-1.04313e-09 0.00253446 7.59465e-14)
(-1.04201e-09 0.00253642 7.49817e-14)
(-1.04557e-09 0.00254546 1.37156e-13)
(-1.05093e-09 0.00255533 1.38823e-13)
(-1.0555e-09 0.0025652 1.37235e-13)
(-1.05987e-09 0.00257423 7.53531e-14)
(-1.05788e-09 0.0025762 7.54583e-14)
(-1.06216e-09 0.00258523 1.36747e-13)
(-1.06692e-09 0.0025951 1.39141e-13)
(-1.07198e-09 0.00260497 1.36951e-13)
(-1.07596e-09 0.002614 7.55696e-14)
(-1.07429e-09 0.00261597 7.52686e-14)
(-1.07831e-09 0.002625 1.3689e-13)
(-1.08329e-09 0.00263487 1.39003e-13)
(-1.08816e-09 0.00264475 1.37043e-13)
(-1.09229e-09 0.00265377 7.54763e-14)
(-1.09051e-09 0.00265574 7.53349e-14)
(-1.09461e-09 0.00266477 1.36822e-13)
(-1.09952e-09 0.00267464 1.39041e-13)
(-1.10445e-09 0.00268452 1.36989e-13)
(-1.10853e-09 0.00269355 7.55038e-14)
(-1.10679e-09 0.00269551 7.53006e-14)
(-1.11087e-09 0.00270454 1.36838e-13)
(-1.11579e-09 0.00271442 1.39007e-13)
(-1.12071e-09 0.00272429 1.36999e-13)
(-1.12479e-09 0.00273332 7.5476e-14)
(-1.12305e-09 0.00273528 7.53171e-14)
(-1.12713e-09 0.00274431 1.36808e-13)
(-1.13206e-09 0.00275419 1.3902e-13)
(-1.13697e-09 0.00276406 1.36962e-13)
(-1.14107e-09 0.00277309 7.5499e-14)
(-1.13929e-09 0.00277505 7.5278e-14)
(-1.14342e-09 0.00278409 1.3684e-13)
(-1.14829e-09 0.00279396 1.38961e-13)
(-1.15327e-09 0.00280383 1.3701e-13)
(-1.15729e-09 0.00281286 7.54214e-14)
(-1.15562e-09 0.00281483 7.53596e-14)
(-1.1596e-09 0.00282386 1.36728e-13)
(-1.16465e-09 0.00283373 1.39077e-13)
(-1.16942e-09 0.0028436 1.36847e-13)
(-1.1737e-09 0.00285263 7.55991e-14)
(-1.17171e-09 0.0028546 7.51327e-14)
(-1.17609e-09 0.00286363 1.36989e-13)
(-1.18065e-09 0.0028735 1.38741e-13)
(-1.18601e-09 0.00288338 1.37231e-13)
(-1.18957e-09 0.0028924 7.51159e-14)
(-1.18845e-09 0.00289437 7.57081e-14)
(-1.19177e-09 0.0029034 1.36308e-13)
(-1.19762e-09 0.00291328 1.40161e-13)
(-1.20149e-09 0.00292321 1.40257e-13)
(-1.20734e-09 0.00293309 1.36545e-13)
(-1.21066e-09 0.00294212 7.59245e-14)
(-1.20954e-09 0.00294408 7.49906e-14)
(-1.2131e-09 0.00295311 1.37155e-13)
(-1.21846e-09 0.00296299 1.38814e-13)
(-1.22303e-09 0.00297286 1.37211e-13)
(-1.2274e-09 0.00298189 7.53365e-14)
(-1.22541e-09 0.00298386 7.54639e-14)
(-1.22969e-09 0.00299289 1.36752e-13)
(-1.23446e-09 0.00300276 1.39129e-13)
(-1.23951e-09 0.00301263 1.36933e-13)
(-1.24349e-09 0.00302166 7.55499e-14)
(-1.24182e-09 0.00302363 7.52793e-14)
(-1.24584e-09 0.00303266 1.36891e-13)
(-1.25082e-09 0.00304253 1.38999e-13)
(-1.25569e-09 0.00305241 1.3702e-13)
(-1.25982e-09 0.00306143 7.54647e-14)
(-1.25803e-09 0.0030634 7.53383e-14)
(-1.26215e-09 0.00307243 1.36833e-13)
(-1.26704e-09 0.0030823 1.39028e-13)
(-1.27199e-09 0.00309218 1.36981e-13)
(-1.27605e-09 0.00310121 7.54788e-14)
(-1.27432e-09 0.00310317 7.53218e-14)
(-1.27839e-09 0.0031122 1.3683e-13)
(-1.28333e-09 0.00312207 1.39021e-13)
(-1.28823e-09 0.00313195 1.36963e-13)
(-1.29234e-09 0.00314098 7.54884e-14)
(-1.29056e-09 0.00314294 7.52946e-14)
(-1.29468e-09 0.00315197 1.36854e-13)
(-1.29956e-09 0.00316185 1.3897e-13)
(-1.30454e-09 0.00317172 1.37006e-13)
(-1.30855e-09 0.00318075 7.54165e-14)
(-1.30689e-09 0.00318271 7.53726e-14)
(-1.31087e-09 0.00319174 1.36745e-13)
(-1.31592e-09 0.00320162 1.39084e-13)
(-1.32068e-09 0.00321149 1.36847e-13)
(-1.32496e-09 0.00322052 7.55935e-14)
(-1.32298e-09 0.00322249 7.51472e-14)
(-1.32735e-09 0.00323152 1.37007e-13)
(-1.33192e-09 0.00324139 1.3875e-13)
(-1.33727e-09 0.00325126 1.37232e-13)
(-1.34083e-09 0.00326029 7.51113e-14)
(-1.33972e-09 0.00326226 7.57228e-14)
(-1.34303e-09 0.00327129 1.36326e-13)
(-1.34889e-09 0.00328117 1.40171e-13)
(-1.35275e-09 0.0032911 1.40256e-13)
(-1.35861e-09 0.00330098 1.36536e-13)
(-1.36193e-09 0.00331001 7.59151e-14)
(-1.36081e-09 0.00331197 7.49998e-14)
(-1.36437e-09 0.003321 1.37163e-13)
(-1.36972e-09 0.00333088 1.38815e-13)
(-1.37429e-09 0.00334075 1.37204e-13)
(-1.37867e-09 0.00334978 7.53278e-14)
(-1.37668e-09 0.00335174 7.54738e-14)
(-1.38096e-09 0.00336077 1.36761e-13)
(-1.38572e-09 0.00337065 1.39132e-13)
(-1.39078e-09 0.00338052 1.36926e-13)
(-1.39475e-09 0.00338955 7.55432e-14)
(-1.39309e-09 0.00339152 7.5288e-14)
(-1.3971e-09 0.00340055 1.36903e-13)
(-1.40208e-09 0.00341042 1.39e-13)
(-1.40696e-09 0.00342029 1.37018e-13)
(-1.41108e-09 0.00342932 7.54549e-14)
(-1.4093e-09 0.00343129 7.53522e-14)
(-1.41341e-09 0.00344032 1.36839e-13)
(-1.41831e-09 0.00345019 1.39038e-13)
(-1.42325e-09 0.00346006 1.3697e-13)
(-1.42733e-09 0.00346909 7.54813e-14)
(-1.42558e-09 0.00347106 7.53216e-14)
(-1.42966e-09 0.00348009 1.36855e-13)
(-1.43459e-09 0.00348996 1.39009e-13)
(-1.43951e-09 0.00349984 1.3698e-13)
(-1.44359e-09 0.00350886 7.54582e-14)
(-1.44185e-09 0.00351083 7.53359e-14)
(-1.44592e-09 0.00351986 1.36829e-13)
(-1.45086e-09 0.00352973 1.39021e-13)
(-1.45576e-09 0.00353961 1.36948e-13)
(-1.45987e-09 0.00354864 7.548e-14)
(-1.45809e-09 0.0035506 7.53005e-14)
(-1.46221e-09 0.00355963 1.3686e-13)
(-1.46709e-09 0.00356951 1.38967e-13)
(-1.47207e-09 0.00357938 1.36996e-13)
(-1.47608e-09 0.00358841 7.5407e-14)
(-1.47442e-09 0.00359037 7.53798e-14)
(-1.4784e-09 0.0035994 1.36752e-13)
(-1.48345e-09 0.00360928 1.39082e-13)
(-1.48821e-09 0.00361915 1.36839e-13)
(-1.49249e-09 0.00362818 7.55834e-14)
(-1.49051e-09 0.00363015 7.51563e-14)
(-1.49488e-09 0.00363918 1.37013e-13)
(-1.49945e-09 0.00364905 1.38751e-13)
(-1.5048e-09 0.00365892 1.37223e-13)
(-1.50836e-09 0.00366795 7.51041e-14)
(-1.50725e-09 0.00366992 7.573e-14)
(-1.51056e-09 0.00367895 1.36335e-13)
(-1.51642e-09 0.00368882 1.40171e-13)
(-1.52028e-09 0.00369876 1.40248e-13)
(-1.52614e-09 0.00370864 1.3652e-13)
(-1.52946e-09 0.00371767 7.59036e-14)
(-1.52834e-09 0.00371963 7.50024e-14)
(-1.5319e-09 0.00372866 1.37164e-13)
(-1.53725e-09 0.00373854 1.38806e-13)
(-1.54182e-09 0.00374841 1.3719e-13)
(-1.5462e-09 0.00375744 7.5315e-14)
(-1.54421e-09 0.0037594 7.54788e-14)
(-1.54849e-09 0.00376843 1.36761e-13)
(-1.55325e-09 0.00377831 1.39126e-13)
(-1.55831e-09 0.00378818 1.36912e-13)
(-1.56228e-09 0.00379721 7.55326e-14)
(-1.56062e-09 0.00379918 7.52923e-14)
(-1.56463e-09 0.00380821 1.36904e-13)
(-1.56962e-09 0.00381808 1.38995e-13)
(-1.57449e-09 0.00382795 1.37004e-13)
(-1.57862e-09 0.00383698 7.5446e-14)
(-1.57683e-09 0.00383895 7.53548e-14)
(-1.58094e-09 0.00384798 1.36844e-13)
(-1.58584e-09 0.00385785 1.39029e-13)
(-1.59079e-09 0.00386772 1.36965e-13)
(-1.59485e-09 0.00387675 7.54643e-14)
(-1.59312e-09 0.00387872 7.53361e-14)
(-1.59718e-09 0.00388775 1.36846e-13)
(-1.60213e-09 0.00389762 1.3902e-13)
(-1.60703e-09 0.0039075 1.36951e-13)
(-1.61114e-09 0.00391652 7.54726e-14)
(-1.60936e-09 0.00391849 7.53123e-14)
(-1.61348e-09 0.00392752 1.36868e-13)
(-1.61835e-09 0.00393739 1.38974e-13)
(-1.62334e-09 0.00394727 1.36994e-13)
(-1.62735e-09 0.0039563 7.54047e-14)
(-1.62569e-09 0.00395826 7.53882e-14)
(-1.62966e-09 0.00396729 1.36764e-13)
(-1.63472e-09 0.00397717 1.39087e-13)
(-1.63948e-09 0.00398704 1.36839e-13)
(-1.64376e-09 0.00399607 7.55802e-14)
(-1.64177e-09 0.00399803 7.51659e-14)
(-1.64615e-09 0.00400706 1.37024e-13)
(-1.65072e-09 0.00401694 1.38757e-13)
(-1.65607e-09 0.00402681 1.37223e-13)
(-1.65963e-09 0.00403584 7.51016e-14)
(-1.65852e-09 0.00403781 7.57398e-14)
(-1.66183e-09 0.00404684 1.36347e-13)
(-1.66769e-09 0.00405671 1.40178e-13)
(-1.67155e-09 0.00406665 1.40249e-13)
(-1.67741e-09 0.00407652 1.36515e-13)
(-1.68072e-09 0.00408555 7.5898e-14)
(-1.67961e-09 0.00408752 7.50087e-14)
(-1.68317e-09 0.00409655 1.37171e-13)
(-1.68852e-09 0.00410642 1.38807e-13)
(-1.69309e-09 0.0041163 1.37186e-13)
(-1.69747e-09 0.00412533 7.53097e-14)
(-1.69548e-09 0.00412729 7.54857e-14)
(-1.69976e-09 0.00413632 1.36767e-13)
(-1.70452e-09 0.0041462 1.39128e-13)
(-1.70957e-09 0.00415607 1.36908e-13)
(-1.71355e-09 0.0041651 7.55289e-14)
(-1.71189e-09 0.00416706 7.52979e-14)
(-1.7159e-09 0.00417609 1.36913e-13)
(-1.72088e-09 0.00418597 1.38996e-13)
(-1.72576e-09 0.00419584 1.37004e-13)
(-1.72988e-09 0.00420487 7.54391e-14)
(-1.7281e-09 0.00420683 7.53654e-14)
(-1.73221e-09 0.00421586 1.36848e-13)
(-1.73711e-09 0.00422574 1.39037e-13)
(-1.74205e-09 0.00423561 1.36956e-13)
(-1.74612e-09 0.00424464 7.54693e-14)
(-1.74438e-09 0.00424661 7.53327e-14)
(-1.74846e-09 0.00425564 1.36868e-13)
(-1.75338e-09 0.00426551 1.39008e-13)
(-1.75831e-09 0.00427538 1.3697e-13)
(-1.76239e-09 0.00428441 7.54446e-14)
(-1.76065e-09 0.00428638 7.53502e-14)
(-1.76472e-09 0.00429541 1.3684e-13)
(-1.76966e-09 0.00430528 1.39024e-13)
(-1.77456e-09 0.00431516 1.36938e-13)
(-1.77867e-09 0.00432418 7.54701e-14)
(-1.77689e-09 0.00432615 7.53126e-14)
(-1.78101e-09 0.00433518 1.36875e-13)
(-1.78589e-09 0.00434505 1.38969e-13)
(-1.79087e-09 0.00435493 1.36989e-13)
(-1.79488e-09 0.00436396 7.53954e-14)
(-1.79322e-09 0.00436592 7.53951e-14)
(-1.7972e-09 0.00437495 1.36766e-13)
(-1.80225e-09 0.00438482 1.39088e-13)
(-1.80701e-09 0.0043947 1.36831e-13)
(-1.81129e-09 0.00440373 7.55755e-14)
(-1.8093e-09 0.00440569 7.51692e-14)
(-1.81368e-09 0.00441472 1.3703e-13)
(-1.81825e-09 0.0044246 1.38755e-13)
(-1.8236e-09 0.00443447 1.37219e-13)
(-1.82716e-09 0.0044435 7.50941e-14)
(-1.82605e-09 0.00444546 7.57465e-14)
(-1.82936e-09 0.00445449 1.3635e-13)
(-1.83522e-09 0.00446437 1.40179e-13)
(-1.83908e-09 0.00447431 1.40241e-13)
(-1.84494e-09 0.00448418 1.36505e-13)
(-1.84825e-09 0.00449321 7.58877e-14)
(-1.84714e-09 0.00449518 7.50125e-14)
(-1.8507e-09 0.00450421 1.37168e-13)
(-1.85605e-09 0.00451408 1.38803e-13)
(-1.86062e-09 0.00452396 1.37174e-13)
(-1.865e-09 0.00453298 7.53031e-14)
(-1.86301e-09 0.00453495 7.54864e-14)
(-1.86729e-09 0.00454398 1.36769e-13)
(-1.87205e-09 0.00455385 1.39121e-13)
(-1.8771e-09 0.00456373 1.369e-13)
(-1.88108e-09 0.00457276 7.55188e-14)
(-1.87942e-09 0.00457472 7.53032e-14)
(-1.88343e-09 0.00458375 1.3691e-13)
(-1.88841e-09 0.00459363 1.38994e-13)
(-1.89329e-09 0.0046035 1.36992e-13)
(-1.89741e-09 0.00461253 7.5436e-14)
(-1.89563e-09 0.00461449 7.53634e-14)
(-1.89974e-09 0.00462352 1.36855e-13)
(-1.90464e-09 0.0046334 1.39027e-13)
(-1.90958e-09 0.00464327 1.36956e-13)
(-1.91365e-09 0.0046523 7.54524e-14)
(-1.91192e-09 0.00465427 7.5348e-14)
(-1.91598e-09 0.0046633 1.36854e-13)
(-1.92093e-09 0.00467317 1.39022e-13)
(-1.92582e-09 0.00468304 1.36941e-13)
(-1.92994e-09 0.00469207 7.54642e-14)
(-1.92815e-09 0.00469404 7.53219e-14)
(-1.93228e-09 0.00470307 1.36881e-13)
(-1.93715e-09 0.00471294 1.38975e-13)
(-1.94213e-09 0.00472281 1.36988e-13)
(-1.94615e-09 0.00473184 7.53944e-14)
(-1.94449e-09 0.00473381 7.54009e-14)
(-1.94846e-09 0.00474284 1.36775e-13)
(-1.95352e-09 0.00475271 1.39092e-13)
(-1.95828e-09 0.00476259 1.36832e-13)
(-1.96256e-09 0.00477161 7.55735e-14)
(-1.96057e-09 0.00477358 7.51763e-14)
(-1.96495e-09 0.00478261 1.37038e-13)
(-1.96951e-09 0.00479248 1.3876e-13)
(-1.97487e-09 0.00480236 1.3722e-13)
(-1.97843e-09 0.00481139 7.50927e-14)
(-1.97731e-09 0.00481335 7.57536e-14)
(-1.98063e-09 0.00482238 1.36359e-13)
(-1.98649e-09 0.00483226 1.40184e-13)
(-1.99035e-09 0.0048422 1.40241e-13)
(-1.9962e-09 0.00485207 1.36503e-13)
(-1.99952e-09 0.0048611 7.58841e-14)
(-1.9984e-09 0.00486307 7.50172e-14)
(-2.00197e-09 0.0048721 1.37173e-13)
(-2.00732e-09 0.00488197 1.38804e-13)
(-2.01189e-09 0.00489184 1.37172e-13)
(-2.01626e-09 0.00490087 7.52996e-14)
(-2.01427e-09 0.00490284 7.54916e-14)
(-2.01855e-09 0.00491187 1.36773e-13)
(-2.02332e-09 0.00492174 1.39123e-13)
(-2.02837e-09 0.00493162 1.36898e-13)
(-2.03235e-09 0.00494064 7.55167e-14)
(-2.03068e-09 0.00494261 7.53071e-14)
(-2.0347e-09 0.00495164 1.36917e-13)
(-2.03968e-09 0.00496151 1.38995e-13)
(-2.04455e-09 0.00497139 1.36993e-13)
(-2.04868e-09 0.00498042 7.54305e-14)
(-2.0469e-09 0.00498238 7.53721e-14)
(-2.051e-09 0.00499141 1.36856e-13)
(-2.05591e-09 0.00500129 1.39035e-13)
(-2.06085e-09 0.00501116 1.36949e-13)
(-2.06492e-09 0.00502019 7.54587e-14)
(-2.06318e-09 0.00502215 7.53427e-14)
(-2.06726e-09 0.00503118 1.36874e-13)
(-2.07218e-09 0.00504106 1.39009e-13)
(-2.07711e-09 0.00505093 1.36961e-13)
(-2.08119e-09 0.00505996 7.54375e-14)
(-2.07944e-09 0.00506193 7.53578e-14)
(-2.08352e-09 0.00507096 1.3685e-13)
(-2.08845e-09 0.00508083 1.39024e-13)
(-2.09336e-09 0.0050907 1.36932e-13)
(-2.09747e-09 0.00509973 7.54609e-14)
(-2.09569e-09 0.0051017 7.53234e-14)
(-2.09981e-09 0.00511073 1.36883e-13)
(-2.10468e-09 0.0051206 1.38972e-13)
(-2.10966e-09 0.00513047 1.36982e-13)
(-2.11368e-09 0.0051395 7.53897e-14)
(-2.11202e-09 0.00514147 7.54034e-14)
(-2.11599e-09 0.0051505 1.36777e-13)
(-2.12105e-09 0.00516037 1.39089e-13)
(-2.12581e-09 0.00517025 1.36828e-13)
(-2.13009e-09 0.00517927 7.55676e-14)
(-2.1281e-09 0.00518124 7.51808e-14)
(-2.13248e-09 0.00519027 1.3704e-13)
(-2.13704e-09 0.00520014 1.3876e-13)
(-2.1424e-09 0.00521002 1.37214e-13)
(-2.14596e-09 0.00521905 7.50895e-14)
(-2.14484e-09 0.00522101 7.57558e-14)
(-2.14816e-09 0.00523004 1.36363e-13)
(-2.15402e-09 0.00523992 1.40182e-13)
(-2.15788e-09 0.00524985 1.40238e-13)
(-2.16373e-09 0.00525973 1.36493e-13)
(-2.16705e-09 0.00526876 7.58789e-14)
(-2.16593e-09 0.00527073 7.50171e-14)
(-2.1695e-09 0.00527976 1.37173e-13)
(-2.17485e-09 0.00528963 1.38798e-13)
(-2.17942e-09 0.0052995 1.37166e-13)
(-2.18379e-09 0.00530853 7.52922e-14)
(-2.1818e-09 0.0053105 7.54942e-14)
(-2.18608e-09 0.00531953 1.36772e-13)
(-2.19085e-09 0.0053294 1.3912e-13)
(-2.1959e-09 0.00533928 1.3689e-13)
(-2.19988e-09 0.0053483 7.55115e-14)
(-2.19822e-09 0.00535027 7.53084e-14)
(-2.20223e-09 0.0053593 1.36917e-13)
(-2.20721e-09 0.00536917 1.38992e-13)
(-2.21208e-09 0.00537905 1.36985e-13)
(-2.21621e-09 0.00538808 7.54263e-14)
(-2.21442e-09 0.00539004 7.5372e-14)
(-2.21854e-09 0.00539907 1.36859e-13)
(-2.22344e-09 0.00540895 1.39028e-13)
(-2.22838e-09 0.00541882 1.36948e-13)
(-2.23244e-09 0.00542785 7.54464e-14)
(-2.23072e-09 0.00542981 7.5354e-14)
(-2.23478e-09 0.00543884 1.36863e-13)
(-2.23972e-09 0.00544872 1.39021e-13)
(-2.24462e-09 0.00545859 1.36937e-13)
(-2.24873e-09 0.00546762 7.54558e-14)
(-2.24695e-09 0.00546958 7.53312e-14)
(-2.25108e-09 0.00547861 1.36887e-13)
(-2.25595e-09 0.00548849 1.38977e-13)
(-2.26093e-09 0.00549836 1.36981e-13)
(-2.26494e-09 0.00550739 7.53896e-14)
(-2.26328e-09 0.00550936 7.54076e-14)
(-2.26726e-09 0.00551839 1.36785e-13)
(-2.27231e-09 0.00552826 1.39092e-13)
(-2.27707e-09 0.00553813 1.36829e-13)
(-2.28136e-09 0.00554716 7.55662e-14)
(-2.27937e-09 0.00554913 7.51862e-14)
(-2.28374e-09 0.00555816 1.37046e-13)
(-2.28831e-09 0.00556803 1.38764e-13)
(-2.29366e-09 0.00557791 1.37215e-13)
(-2.29722e-09 0.00558693 7.50888e-14)
(-2.29611e-09 0.0055889 7.57611e-14)
(-2.29943e-09 0.00559793 1.3637e-13)
(-2.30528e-09 0.00560781 1.40187e-13)
(-2.30914e-09 0.00561774 1.40239e-13)
(-2.315e-09 0.00562762 1.36491e-13)
(-2.31832e-09 0.00563665 7.58765e-14)
(-2.3172e-09 0.00563861 7.50207e-14)
(-2.32076e-09 0.00564764 1.37177e-13)
(-2.32611e-09 0.00565752 1.388e-13)
(-2.33068e-09 0.00566739 1.37164e-13)
(-2.33506e-09 0.00567642 7.52898e-14)
(-2.33307e-09 0.00567839 7.54984e-14)
(-2.33735e-09 0.00568742 1.36776e-13)
(-2.34211e-09 0.00569729 1.39123e-13)
(-2.34717e-09 0.00570716 1.36888e-13)
(-2.35115e-09 0.00571619 7.55105e-14)
(-2.34948e-09 0.00571816 7.53112e-14)
(-2.3535e-09 0.00572719 1.36923e-13)
(-2.35847e-09 0.00573706 1.38992e-13)
(-2.36335e-09 0.00574693 1.36987e-13)
(-2.36747e-09 0.00575596 7.54217e-14)
(-2.36569e-09 0.00575793 7.53797e-14)
(-2.3698e-09 0.00576696 1.3686e-13)
(-2.37471e-09 0.00577683 1.39036e-13)
(-2.37964e-09 0.00578671 1.3694e-13)
(-2.38372e-09 0.00579574 7.54535e-14)
(-2.38197e-09 0.0057977 7.53474e-14)
(-2.38605e-09 0.00580673 1.36881e-13)
(-2.39098e-09 0.0058166 1.39007e-13)
(-2.3959e-09 0.00582648 1.36957e-13)
(-2.39998e-09 0.00583551 7.54297e-14)
(-2.39824e-09 0.00583747 7.53659e-14)
(-2.40231e-09 0.0058465 1.36855e-13)
(-2.40725e-09 0.00585638 1.39026e-13)
(-2.41215e-09 0.00586625 1.36926e-13)
(-2.41626e-09 0.00587528 7.54567e-14)
(-2.41448e-09 0.00587724 7.53287e-14)
(-2.41861e-09 0.00588627 1.36892e-13)
(-2.42348e-09 0.00589615 1.38972e-13)
(-2.42846e-09 0.00590602 1.3698e-13)
(-2.43248e-09 0.00591505 7.53828e-14)
(-2.43081e-09 0.00591702 7.54122e-14)
(-2.43479e-09 0.00592605 1.36783e-13)
(-2.43984e-09 0.00593592 1.39093e-13)
(-2.44461e-09 0.00594579 1.36823e-13)
(-2.44889e-09 0.00595482 7.55644e-14)
(-2.4469e-09 0.00595679 7.51866e-14)
(-2.45127e-09 0.00596582 1.37049e-13)
(-2.45584e-09 0.00597569 1.38761e-13)
(-2.46119e-09 0.00598556 1.37213e-13)
(-2.46476e-09 0.00599459 7.50834e-14)
(-2.46364e-09 0.00599656 7.57653e-14)
(-2.46696e-09 0.00600559 1.3637e-13)
(-2.47281e-09 0.00601547 1.40188e-13)
(-2.47667e-09 0.0060254 1.40233e-13)
(-2.48253e-09 0.00603528 1.36486e-13)
(-2.48585e-09 0.00604431 7.58696e-14)
(-2.48473e-09 0.00604627 7.50233e-14)
(-2.48829e-09 0.0060553 1.37175e-13)
(-2.49365e-09 0.00606518 1.38798e-13)
(-2.49822e-09 0.00607505 1.37156e-13)
(-2.50259e-09 0.00608408 7.52869e-14)
(-2.5006e-09 0.00608605 7.54973e-14)
(-2.50488e-09 0.00609508 1.36777e-13)
(-2.50964e-09 0.00610495 1.39117e-13)
(-2.5147e-09 0.00611482 1.36885e-13)
(-2.51868e-09 0.00612385 7.55034e-14)
(-2.51701e-09 0.00612582 7.53151e-14)
(-2.52103e-09 0.00613485 1.3692e-13)
(-2.52601e-09 0.00614472 1.38992e-13)