/*--------------------------------*- C++ -*----------------------------------*\
| =========                 |                                                 |
| \\      /  F ield         | OpenFOAM: The Open Source CFD Toolbox           |
|  \\    /   O peration     | Version:  2206                                  |
|   \\  /    A nd           | Website:  www.openfoam.com                      |
|    \\/     M anipulation  |                                                 |
\*---------------------------------------------------------------------------*/
FoamFile
{
    version     2.0;
    format      ascii;
    arch        "LSB;label=32;scalar=64";
    class       volScalarField;
    location    "2";
    object      p;
}
// * * * * * * * * * * * * * * * * * * * * * * * * * * * * * * * * * * * * * //

dimensions      [0 2 -2 0 0 0 0];

internalField   nonuniform List<scalar> 
36000
(
5.10593e-07
-4.57768e-06
-1.14552e-05
-1.73064e-05
-2.03815e-05
-2.17019e-05
0.00012466
0.000117764
0.000108783
0.000100913
9.64111e-05
9.41552e-05
0.000406851
0.000400985
0.000393744
0.000388334
0.000386344
0.000386056
0.000879427
0.000874091
0.000867859
0.000864039
0.000863787
0.00086488
0.00156985
0.00156458
0.00155856
0.00155522
0.00155558
0.00155718
0.00248914
0.00248386
0.00247789
0.00247468
0.00247523
0.00247699
0.00363732
0.00363204
0.00362606
0.00362286
0.00362344
0.00362523
0.00501053
0.00500525
0.00499927
0.00499607
0.00499665
0.00499844
0.00660503
0.00659974
0.00659375
0.00659053
0.00659109
0.00659286
0.00841763
0.00841235
0.00840636
0.00840315
0.0084037
0.00840547
0.0104463
0.010441
0.010435
0.0104318
0.0104324
0.0104342
0.0126896
0.0126843
0.0126784
0.0126752
0.0126757
0.0126775
0.0151466
0.0151414
0.0151354
0.0151322
0.0151327
0.0151345
0.0178165
0.0178112
0.0178052
0.017802
0.0178026
0.0178043
0.0206985
0.0206933
0.0206873
0.0206841
0.0206846
0.0206864
0.0237923
0.023787
0.023781
0.0237778
0.0237783
0.0237801
0.027097
0.0270918
0.0270858
0.0270825
0.0270831
0.0270848
0.0306128
0.0306075
0.0306015
0.0305982
0.0305988
0.0306005
0.034339
0.0343337
0.0343277
0.0343245
0.034325
0.0343268
0.0382756
0.0382703
0.0382643
0.0382611
0.0382616
0.0382634
0.0424224
0.0424171
0.0424111
0.0424079
0.0424084
0.0424101
0.0467791
0.0467738
0.0467678
0.0467646
0.0467651
0.0467669
0.0513457
0.0513405
0.0513345
0.0513312
0.0513318
0.0513335
0.0561223
0.056117
0.056111
0.0561078
0.0561083
0.0561101
0.0611086
0.0611033
0.0610973
0.0610941
0.0610946
0.0610963
0.0663045
0.0662992
0.0662932
0.06629
0.0662905
0.0662923
0.0717101
0.0717048
0.0716988
0.0716956
0.0716961
0.0716979
0.0773252
0.0773199
0.0773139
0.0773107
0.0773112
0.077313
0.0831498
0.0831445
0.0831386
0.0831353
0.0831359
0.0831376
0.089184
0.0891787
0.0891727
0.0891695
0.08917
0.0891718
0.0954276
0.0954223
0.0954163
0.0954131
0.0954136
0.0954154
0.101881
0.101875
0.101869
0.101866
0.101867
0.101868
0.108543
0.108538
0.108532
0.108528
0.108529
0.108531
0.115415
0.115409
0.115403
0.1154
0.115401
0.115402
0.122496
0.12249
0.122484
0.122481
0.122482
0.122483
0.129786
0.12978
0.129774
0.129771
0.129772
0.129773
0.137285
0.13728
0.137274
0.13727
0.137271
0.137273
0.144993
0.144988
0.144982
0.144979
0.144979
0.144981
0.152911
0.152906
0.1529
0.152896
0.152897
0.152899
0.161038
0.161032
0.161026
0.161023
0.161024
0.161025
0.169373
0.169368
0.169362
0.169359
0.169359
0.169361
0.177918
0.177913
0.177907
0.177904
0.177904
0.177906
0.186672
0.186667
0.186661
0.186658
0.186659
0.18666
0.195636
0.19563
0.195624
0.195621
0.195622
0.195623
0.204808
0.204803
0.204797
0.204793
0.204794
0.204796
0.214189
0.214184
0.214178
0.214175
0.214175
0.214177
0.22378
0.223774
0.223768
0.223765
0.223766
0.223767
0.233579
0.233574
0.233568
0.233565
0.233565
0.233567
0.243587
0.243582
0.243576
0.243573
0.243573
0.243575
0.253805
0.2538
0.253794
0.25379
0.253791
0.253793
0.264231
0.264226
0.26422
0.264217
0.264217
0.264219
0.274866
0.274861
0.274855
0.274852
0.274852
0.274854
0.28571
0.285705
0.285699
0.285696
0.285696
0.285698
0.296763
0.296758
0.296752
0.296749
0.29675
0.296751
0.308025
0.30802
0.308014
0.308011
0.308011
0.308013
0.319496
0.319491
0.319485
0.319482
0.319482
0.319484
0.331176
0.331171
0.331165
0.331162
0.331162
0.331164
0.343065
0.34306
0.343054
0.34305
0.343051
0.343053
0.355162
0.355157
0.355151
0.355148
0.355148
0.35515
0.367469
0.367464
0.367458
0.367454
0.367455
0.367457
0.379984
0.379979
0.379973
0.37997
0.37997
0.379972
0.392708
0.392703
0.392697
0.392694
0.392694
0.392696
0.405642
0.405636
0.40563
0.405627
0.405628
0.405629
0.418784
0.418778
0.418772
0.418769
0.41877
0.418771
0.432135
0.432129
0.432123
0.43212
0.432121
0.432122
0.445694
0.445689
0.445683
0.44568
0.44568
0.445682
0.459463
0.459458
0.459452
0.459448
0.459449
0.459451
0.47344
0.473435
0.473429
0.473426
0.473427
0.473428
0.487627
0.487622
0.487616
0.487612
0.487613
0.487615
0.502022
0.502017
0.502011
0.502007
0.502008
0.50201
0.516626
0.516621
0.516615
0.516612
0.516612
0.516614
0.531439
0.531434
0.531428
0.531424
0.531425
0.531427
0.546461
0.546455
0.546449
0.546446
0.546447
0.546448
0.561691
0.561686
0.56168
0.561677
0.561677
0.561679
0.577131
0.577125
0.577119
0.577116
0.577117
0.577118
0.592779
0.592774
0.592768
0.592764
0.592765
0.592767
0.608636
0.608631
0.608625
0.608621
0.608622
0.608624
0.624702
0.624697
0.624691
0.624687
0.624688
0.62469
0.640977
0.640971
0.640965
0.640962
0.640963
0.640964
0.65746
0.657455
0.657449
0.657446
0.657446
0.657448
0.674153
0.674147
0.674141
0.674138
0.674139
0.67414
0.691054
0.691049
0.691043
0.691039
0.69104
0.691042
0.708164
0.708159
0.708153
0.708149
0.70815
0.708152
0.725483
0.725477
0.725471
0.725468
0.725469
0.725471
0.74301
0.743005
0.742999
0.742996
0.742996
0.742998
0.760747
0.760742
0.760736
0.760732
0.760733
0.760735
0.778692
0.778687
0.778681
0.778678
0.778678
0.77868
0.796846
0.796841
0.796835
0.796832
0.796832
0.796834
0.815209
0.815204
0.815198
0.815194
0.815195
0.815197
0.833781
0.833775
0.833769
0.833766
0.833767
0.833768
0.852561
0.852556
0.85255
0.852546
0.852547
0.852549
0.87155
0.871545
0.871539
0.871536
0.871536
0.871538
0.890748
0.890743
0.890737
0.890734
0.890734
0.890736
0.910155
0.91015
0.910144
0.910141
0.910141
0.910143
0.929771
0.929765
0.929759
0.929756
0.929757
0.929758
0.949595
0.94959
0.949584
0.949581
0.949581
0.949583
0.969628
0.969623
0.969617
0.969614
0.969614
0.969616
0.98987
0.989865
0.989859
0.989856
0.989856
0.989858
1.01032
1.01032
1.01031
1.01031
1.01031
1.01031
1.03098
1.03098
1.03097
1.03097
1.03097
1.03097
1.05185
1.05184
1.05184
1.05183
1.05184
1.05184
1.07293
1.07292
1.07291
1.07291
1.07291
1.07291
1.09421
1.09421
1.0942
1.0942
1.0942
1.0942
1.11571
1.1157
1.1157
1.11569
1.11569
1.11569
1.13741
1.13741
1.1374
1.1374
1.1374
1.1374
1.15932
1.15932
1.15931
1.15931
1.15931
1.15931
1.18144
1.18144
1.18143
1.18143
1.18143
1.18143
1.20377
1.20377
1.20376
1.20376
1.20376
1.20376
1.22631
1.22631
1.2263
1.2263
1.2263
1.2263
1.24906
1.24905
1.24905
1.24905
1.24905
1.24905
1.27202
1.27201
1.272
1.272
1.272
1.272
1.29518
1.29518
1.29517
1.29517
1.29517
1.29517
1.31855
1.31855
1.31854
1.31854
1.31854
1.31854
1.34214
1.34213
1.34213
1.34212
1.34212
1.34213
1.36593
1.36592
1.36592
1.36591
1.36591
1.36592
1.38993
1.38992
1.38992
1.38991
1.38991
1.38992
1.41414
1.41413
1.41413
1.41412
1.41412
1.41413
1.43856
1.43855
1.43854
1.43854
1.43854
1.43854
1.46318
1.46318
1.46317
1.46317
1.46317
1.46317
1.48802
1.48801
1.48801
1.488
1.488
1.488
1.51306
1.51305
1.51305
1.51305
1.51305
1.51305
1.53831
1.53831
1.5383
1.5383
1.5383
1.5383
1.56377
1.56377
1.56376
1.56376
1.56376
1.56376
1.58944
1.58944
1.58943
1.58943
1.58943
1.58943
1.61532
1.61532
1.61531
1.61531
1.61531
1.61531
1.64141
1.64141
1.6414
1.6414
1.6414
1.6414
1.66771
1.6677
1.6677
1.66769
1.66769
1.66769
1.69421
1.69421
1.6942
1.6942
1.6942
1.6942
1.72093
1.72092
1.72091
1.72091
1.72091
1.72091
1.74785
1.74784
1.74784
1.74783
1.74783
1.74784
1.77498
1.77497
1.77497
1.77497
1.77497
1.77497
1.80232
1.80231
1.80231
1.80231
1.80231
1.80231
1.82987
1.82986
1.82986
1.82985
1.82986
1.82986
1.85763
1.85762
1.85762
1.85761
1.85761
1.85761
1.88559
1.88559
1.88558
1.88558
1.88558
1.88558
1.91377
1.91376
1.91376
1.91375
1.91375
1.91376
1.94215
1.94215
1.94214
1.94214
1.94214
1.94214
1.97074
1.97074
1.97073
1.97073
1.97073
1.97073
1.99955
1.99954
1.99954
1.99953
1.99953
1.99953
2.02856
2.02855
2.02855
2.02854
2.02854
2.02854
2.05778
2.05777
2.05776
2.05776
2.05776
2.05776
2.0872
2.0872
2.08719
2.08719
2.08719
2.08719
2.11684
2.11683
2.11683
2.11683
2.11683
2.11683
2.14668
2.14668
2.14667
2.14667
2.14667
2.14667
2.17674
2.17673
2.17673
2.17672
2.17672
2.17673
2.207
2.207
2.20699
2.20699
2.20699
2.20699
2.23747
2.23747
2.23746
2.23746
2.23746
2.23746
2.26815
2.26815
2.26814
2.26814
2.26814
2.26814
2.29904
2.29904
2.29903
2.29903
2.29903
2.29903
2.33014
2.33013
2.33013
2.33013
2.33013
2.33013
2.36145
2.36144
2.36143
2.36143
2.36143
2.36143
2.39296
2.39296
2.39295
2.39295
2.39295
2.39295
2.42469
2.42468
2.42467
2.42467
2.42467
2.42467
2.45662
2.45661
2.45661
2.4566
2.4566
2.45661
2.48876
2.48875
2.48875
2.48874
2.48875
2.48875
2.52111
2.5211
2.5211
2.52109
2.5211
2.5211
2.55367
2.55366
2.55366
2.55365
2.55365
2.55366
2.58644
2.58643
2.58642
2.58642
2.58642
2.58642
2.61941
2.61941
2.6194
2.6194
2.6194
2.6194
2.6526
2.65259
2.65259
2.65258
2.65258
2.65259
2.68599
2.68599
2.68598
2.68598
2.68598
2.68598
2.71959
2.71959
2.71958
2.71958
2.71958
2.71958
2.75341
2.7534
2.75339
2.75339
2.75339
2.75339
2.78743
2.78742
2.78741
2.78741
2.78741
2.78741
2.82165
2.82165
2.82164
2.82164
2.82164
2.82164
2.85609
2.85609
2.85608
2.85608
2.85608
2.85608
2.89074
2.89073
2.89073
2.89072
2.89072
2.89073
2.92559
2.92559
2.92558
2.92558
2.92558
2.92558
2.96066
2.96065
2.96065
2.96064
2.96064
2.96064
2.99593
2.99592
2.99592
2.99592
2.99592
2.99592
3.03141
3.03141
3.0314
3.0314
3.0314
3.0314
3.0671
3.0671
3.06709
3.06709
3.06709
3.06709
3.103
3.10299
3.10299
3.10299
3.10299
3.10299
3.13911
3.1391
3.1391
3.13909
3.13909
3.1391
3.17542
3.17542
3.17541
3.17541
3.17541
3.17541
3.21195
3.21194
3.21194
3.21193
3.21193
3.21194
3.24868
3.24868
3.24867
3.24867
3.24867
3.24867
3.28563
3.28562
3.28561
3.28561
3.28561
3.28561
3.32278
3.32277
3.32277
3.32276
3.32276
3.32276
3.36014
3.36013
3.36013
3.36012
3.36012
3.36012
3.39771
3.3977
3.39769
3.39769
3.39769
3.39769
3.43548
3.43548
3.43547
3.43547
3.43547
3.43547
3.47347
3.47346
3.47346
3.47345
3.47345
3.47346
3.51166
3.51166
3.51165
3.51165
3.51165
3.51165
3.55007
3.55006
3.55006
3.55005
3.55005
3.55006
3.58868
3.58867
3.58867
3.58867
3.58867
3.58867
3.6275
3.6275
3.62749
3.62749
3.62749
3.62749
3.66653
3.66653
3.66652
3.66652
3.66652
3.66652
3.70577
3.70576
3.70576
3.70575
3.70576
3.70576
3.74522
3.74521
3.74521
3.7452
3.7452
3.7452
3.78487
3.78487
3.78486
3.78486
3.78486
3.78486
3.82474
3.82473
3.82473
3.82472
3.82472
3.82473
3.86481
3.86481
3.8648
3.8648
3.8648
3.8648
3.90509
3.90509
3.90508
3.90508
3.90508
3.90508
3.94558
3.94558
3.94557
3.94557
3.94557
3.94557
3.98628
3.98628
3.98627
3.98627
3.98627
3.98627
4.02719
4.02719
4.02718
4.02718
4.02718
4.02718
4.06831
4.06831
4.0683
4.0683
4.0683
4.0683
4.10964
4.10963
4.10963
4.10962
4.10962
4.10962
4.15117
4.15117
4.15116
4.15116
4.15116
4.15116
4.19291
4.19291
4.1929
4.1929
4.1929
4.1929
4.23487
4.23486
4.23486
4.23485
4.23485
4.23485
4.27703
4.27702
4.27702
4.27701
4.27701
4.27702
4.3194
4.31939
4.31939
4.31938
4.31938
4.31939
4.36198
4.36197
4.36196
4.36196
4.36196
4.36196
4.40476
4.40476
4.40475
4.40475
4.40475
4.40475
4.44776
4.44775
4.44775
4.44774
4.44774
4.44775
4.49096
4.49096
4.49095
4.49095
4.49095
4.49095
4.53438
4.53437
4.53437
4.53436
4.53436
4.53436
4.578
4.57799
4.57799
4.57798
4.57799
4.57799
4.62183
4.62182
4.62182
4.62182
4.62182
4.62182
4.66587
4.66586
4.66586
4.66585
4.66586
4.66586
4.71012
4.71011
4.71011
4.7101
4.7101
4.71011
4.75457
4.75457
4.75456
4.75456
4.75456
4.75456
4.79924
4.79924
4.79923
4.79923
4.79923
4.79923
4.84412
4.84411
4.8441
4.8441
4.8441
4.8441
4.8892
4.88919
4.88919
4.88918
4.88918
4.88919
4.93449
4.93448
4.93448
4.93448
4.93448
4.93448
4.97999
4.97999
4.97998
4.97998
4.97998
4.97998
5.0257
5.0257
5.02569
5.02569
5.02569
5.02569
5.07162
5.07161
5.07161
5.0716
5.0716
5.07161
5.11775
5.11774
5.11773
5.11773
5.11773
5.11773
5.16408
5.16408
5.16407
5.16407
5.16407
5.16407
5.21063
5.21062
5.21061
5.21061
5.21061
5.21061
5.25738
5.25737
5.25737
5.25736
5.25736
5.25737
5.30434
5.30434
5.30433
5.30433
5.30433
5.30433
5.35151
5.35151
5.3515
5.3515
5.3515
5.3515
5.39889
5.39889
5.39888
5.39888
5.39888
5.39888
5.44648
5.44647
5.44647
5.44646
5.44646
5.44647
5.49428
5.49427
5.49426
5.49426
5.49426
5.49426
5.54228
5.54228
5.54227
5.54227
5.54227
5.54227
5.59049
5.59049
5.59048
5.59048
5.59048
5.59048
5.63892
5.63891
5.63891
5.6389
5.6389
5.63891
5.68755
5.68754
5.68754
5.68754
5.68754
5.68754
5.73639
5.73638
5.73638
5.73638
5.73638
5.73638
5.78544
5.78543
5.78543
5.78542
5.78543
5.78543
5.8347
5.83469
5.83469
5.83468
5.83468
5.83468
5.88416
5.88416
5.88415
5.88415
5.88415
5.88415
5.93384
5.93383
5.93383
5.93382
5.93383
5.93383
5.98372
5.98372
5.98371
5.98371
5.98371
5.98371
6.03382
6.03381
6.0338
6.0338
6.0338
6.0338
6.08412
6.08411
6.08411
6.0841
6.0841
6.08411
6.13463
6.13462
6.13462
6.13461
6.13461
6.13462
6.18535
6.18534
6.18534
6.18533
6.18533
6.18533
6.23627
6.23627
6.23626
6.23626
6.23626
6.23626
6.28741
6.28741
6.2874
6.2874
6.2874
6.2874
6.33876
6.33875
6.33875
6.33874
6.33874
6.33874
6.39031
6.3903
6.3903
6.3903
6.3903
6.3903
6.44207
6.44207
6.44206
6.44206
6.44206
6.44206
6.49404
6.49404
6.49403
6.49403
6.49403
6.49403
6.54622
6.54622
6.54621
6.54621
6.54621
6.54621
6.59861
6.59861
6.5986
6.5986
6.5986
6.5986
6.65121
6.65121
6.6512
6.6512
6.6512
6.6512
6.70402
6.70401
6.70401
6.704
6.704
6.704
6.75703
6.75703
6.75702
6.75702
6.75702
6.75702
6.81026
6.81025
6.81024
6.81024
6.81024
6.81024
6.86369
6.86368
6.86368
6.86367
6.86367
6.86368
6.91733
6.91732
6.91732
6.91732
6.91732
6.91732
6.97118
6.97117
6.97117
6.97117
6.97117
6.97117
7.02524
7.02523
7.02523
7.02522
7.02522
7.02523
7.07951
7.0795
7.07949
7.07949
7.07949
7.07949
7.13398
7.13398
7.13397
7.13397
7.13397
7.13397
7.18867
7.18866
7.18866
7.18865
7.18865
7.18865
7.24356
7.24356
7.24355
7.24355
7.24355
7.24355
7.29866
7.29866
7.29865
7.29865
7.29865
7.29865
7.35397
7.35397
7.35396
7.35396
7.35396
7.35396
7.40949
7.40949
7.40948
7.40948
7.40948
7.40948
7.46522
7.46522
7.46521
7.46521
7.46521
7.46521
7.52116
7.52115
7.52115
7.52115
7.52115
7.52115
7.57731
7.5773
7.57729
7.57729
7.57729
7.57729
7.63366
7.63366
7.63365
7.63365
7.63365
7.63365
7.69022
7.69022
7.69021
7.69021
7.69021
7.69021
7.747
7.74699
7.74698
7.74698
7.74698
7.74698
7.80398
7.80397
7.80397
7.80396
7.80396
7.80396
7.86117
7.86116
7.86116
7.86115
7.86115
7.86115
7.91856
7.91856
7.91855
7.91855
7.91855
7.91855
7.97617
7.97617
7.97616
7.97616
7.97616
7.97616
8.03399
8.03398
8.03398
8.03397
8.03397
8.03398
8.09201
8.09201
8.092
8.092
8.092
8.092
8.15025
8.15024
8.15023
8.15023
8.15023
8.15023
8.20869
8.20868
8.20868
8.20867
8.20867
8.20868
8.26734
8.26733
8.26733
8.26732
8.26732
8.26733
8.3262
8.32619
8.32619
8.32618
8.32618
8.32619
8.38527
8.38526
8.38525
8.38525
8.38525
8.38525
8.44454
8.44454
8.44453
8.44453
8.44453
8.44453
8.50403
8.50402
8.50402
8.50401
8.50401
8.50402
8.56372
8.56372
8.56371
8.56371
8.56371
8.56371
8.62363
8.62362
8.62361
8.62361
8.62361
8.62361
8.68374
8.68373
8.68373
8.68372
8.68372
8.68373
8.74406
8.74405
8.74405
8.74404
8.74404
8.74405
8.80459
8.80458
8.80458
8.80457
8.80457
8.80458
8.86533
8.86532
8.86531
8.86531
8.86531
8.86531
8.92627
8.92627
8.92626
8.92626
8.92626
8.92626
8.98743
8.98742
8.98742
8.98741
8.98741
8.98742
9.04879
9.04879
9.04878
9.04878
9.04878
9.04878
9.11037
9.11036
9.11035
9.11035
9.11035
9.11035
9.17215
9.17214
9.17214
9.17213
9.17213
9.17213
9.23414
9.23413
9.23413
9.23412
9.23412
9.23413
9.29634
9.29633
9.29633
9.29632
9.29632
9.29632
9.35874
9.35874
9.35873
9.35873
9.35873
9.35873
9.42136
9.42136
9.42135
9.42135
9.42135
9.42135
9.48419
9.48418
9.48417
9.48417
9.48417
9.48417
9.54722
9.54721
9.54721
9.54721
9.54721
9.54721
9.61046
9.61046
9.61045
9.61045
9.61045
9.61045
9.67391
9.67391
9.6739
9.6739
9.6739
9.6739
9.73757
9.73757
9.73756
9.73756
9.73756
9.73756
9.80144
9.80144
9.80143
9.80143
9.80143
9.80143
9.86552
9.86552
9.86551
9.86551
9.86551
9.86551
9.92981
9.9298
9.9298
9.92979
9.92979
9.9298
9.9943
9.9943
9.99429
9.99429
9.99429
9.99429
10.059
10.059
10.059
10.059
10.059
10.059
10.1239
10.1239
10.1239
10.1239
10.1239
10.1239
10.189
10.189
10.189
10.189
10.189
10.189
10.2544
10.2544
10.2544
10.2544
10.2544
10.2544
10.3199
10.3199
10.3199
10.3199
10.3199
10.3199
10.3857
10.3857
10.3856
10.3856
10.3856
10.3856
10.4516
10.4516
10.4516
10.4516
10.4516
10.4516
10.5178
10.5178
10.5178
10.5178
10.5178
10.5178
10.5842
10.5841
10.5841
10.5841
10.5841
10.5841
10.6507
10.6507
10.6507
10.6507
10.6507
10.6507
10.7175
10.7175
10.7175
10.7175
10.7175
10.7175
10.7845
10.7845
10.7845
10.7845
10.7845
10.7845
10.8517
10.8517
10.8517
10.8517
10.8517
10.8517
10.9192
10.9191
10.9191
10.9191
10.9191
10.9191
10.9868
10.9868
10.9868
10.9868
10.9868
10.9868
11.0546
11.0546
11.0546
11.0546
11.0546
11.0546
11.1227
11.1226
11.1226
11.1226
11.1226
11.1226
11.1909
11.1909
11.1909
11.1909
11.1909
11.1909
11.2594
11.2594
11.2594
11.2594
11.2594
11.2594
11.328
11.328
11.328
11.328
11.328
11.328
11.3969
11.3969
11.3969
11.3969
11.3969
11.3969
11.466
11.466
11.466
11.466
11.466
11.466
11.5353
11.5353
11.5353
11.5353
11.5353
11.5353
11.6048
11.6048
11.6048
11.6048
11.6048
11.6048
11.6745
11.6745
11.6745
11.6745
11.6745
11.6745
11.7444
11.7444
11.7444
11.7444
11.7444
11.7444
11.8146
11.8146
11.8146
11.8146
11.8146
11.8146
11.8849
11.8849
11.8849
11.8849
11.8849
11.8849
11.9555
11.9555
11.9554
11.9554
11.9554
11.9554
12.0262
12.0262
12.0262
12.0262
12.0262
12.0262
12.0972
12.0972
12.0972
12.0972
12.0972
12.0972
12.1684
12.1683
12.1683
12.1683
12.1683
12.1683
12.2397
12.2397
12.2397
12.2397
12.2397
12.2397
12.3113
12.3113
12.3113
12.3113
12.3113
12.3113
12.3831
12.3831
12.3831
12.3831
12.3831
12.3831
12.4551
12.4551
12.4551
12.4551
12.4551
12.4551
12.5274
12.5274
12.5273
12.5273
12.5273
12.5273
12.5998
12.5998
12.5998
12.5998
12.5998
12.5998
12.6724
12.6724
12.6724
12.6724
12.6724
12.6724
12.7453
12.7453
12.7453
12.7452
12.7452
12.7453
12.8183
12.8183
12.8183
12.8183
12.8183
12.8183
12.8916
12.8916
12.8916
12.8916
12.8916
12.8916
12.965
12.965
12.965
12.965
12.965
12.965
13.0387
13.0387
13.0387
13.0387
13.0387
13.0387
13.1126
13.1126
13.1126
13.1126
13.1126
13.1126
13.1867
13.1867
13.1867
13.1867
13.1867
13.1867
13.261
13.261
13.261
13.261
13.261
13.261
13.3355
13.3355
13.3355
13.3355
13.3355
13.3355
13.4103
13.4102
13.4102
13.4102
13.4102
13.4102
13.4852
13.4852
13.4852
13.4852
13.4852
13.4852
13.5603
13.5603
13.5603
13.5603
13.5603
13.5603
13.6357
13.6357
13.6357
13.6357
13.6357
13.6357
13.7112
13.7112
13.7112
13.7112
13.7112
13.7112
13.787
13.787
13.787
13.787
13.787
13.787
13.863
13.863
13.863
13.863
13.863
13.863
13.9392
13.9392
13.9391
13.9391
13.9391
13.9391
14.0156
14.0155
14.0155
14.0155
14.0155
14.0155
14.0922
14.0921
14.0921
14.0921
14.0921
14.0921
14.169
14.169
14.169
14.1689
14.1689
14.1689
14.246
14.246
14.246
14.246
14.246
14.246
14.3232
14.3232
14.3232
14.3232
14.3232
14.3232
14.4006
14.4006
14.4006
14.4006
14.4006
14.4006
14.4783
14.4783
14.4783
14.4783
14.4783
14.4783
14.5561
14.5561
14.5561
14.5561
14.5561
14.5561
14.6342
14.6342
14.6342
14.6342
14.6342
14.6342
14.7125
14.7125
14.7125
14.7125
14.7125
14.7125
14.791
14.791
14.7909
14.7909
14.7909
14.7909
14.8696
14.8696
14.8696
14.8696
14.8696
14.8696
14.9485
14.9485
14.9485
14.9485
14.9485
14.9485
15.0276
15.0276
15.0276
15.0276
15.0276
15.0276
15.107
15.107
15.107
15.1069
15.1069
15.107
15.1865
15.1865
15.1865
15.1865
15.1865
15.1865
15.2662
15.2662
15.2662
15.2662
15.2662
15.2662
15.3462
15.3462
15.3461
15.3461
15.3461
15.3461
15.4263
15.4263
15.4263
15.4263
15.4263
15.4263
15.5067
15.5067
15.5067
15.5067
15.5067
15.5067
15.5872
15.5872
15.5872
15.5872
15.5872
15.5872
15.668
15.668
15.668
15.668
15.668
15.668
15.749
15.749
15.749
15.749
15.749
15.749
15.8302
15.8302
15.8302
15.8302
15.8302
15.8302
15.9116
15.9116
15.9116
15.9116
15.9116
15.9116
15.9932
15.9932
15.9932
15.9932
15.9932
15.9932
16.075
16.075
16.075
16.075
16.075
16.075
16.157
16.157
16.157
16.157
16.157
16.157
16.2393
16.2393
16.2393
16.2393
16.2393
16.2393
16.3217
16.3217
16.3217
16.3217
16.3217
16.3217
16.4044
16.4044
16.4044
16.4044
16.4044
16.4044
16.4872
16.4872
16.4872
16.4872
16.4872
16.4872
16.5703
16.5703
16.5703
16.5703
16.5703
16.5703
16.6536
16.6536
16.6536
16.6536
16.6536
16.6536
16.7371
16.7371
16.7371
16.7371
16.7371
16.7371
16.8208
16.8208
16.8208
16.8208
16.8208
16.8208
16.9047
16.9047
16.9047
16.9047
16.9047
16.9047
16.9888
16.9888
16.9888
16.9888
16.9888
16.9888
17.0731
17.0731
17.0731
17.0731
17.0731
17.0731
17.1577
17.1577
17.1577
17.1576
17.1576
17.1577
17.2424
17.2424
17.2424
17.2424
17.2424
17.2424
17.3274
17.3273
17.3273
17.3273
17.3273
17.3273
17.4125
17.4125
17.4125
17.4125
17.4125
17.4125
17.4979
17.4979
17.4979
17.4979
17.4979
17.4979
17.5835
17.5835
17.5834
17.5834
17.5834
17.5834
17.6692
17.6692
17.6692
17.6692
17.6692
17.6692
17.7552
17.7552
17.7552
17.7552
17.7552
17.7552
17.8414
17.8414
17.8414
17.8414
17.8414
17.8414
17.9278
17.9278
17.9278
17.9278
17.9278
17.9278
18.0145
18.0145
18.0145
18.0145
18.0145
18.0145
18.1013
18.1013
18.1013
18.1013
18.1013
18.1013
18.1883
18.1883
18.1883
18.1883
18.1883
18.1883
18.2756
18.2756
18.2756
18.2756
18.2756
18.2756
18.363
18.363
18.363
18.363
18.363
18.363
18.4507
18.4507
18.4507
18.4507
18.4507
18.4507
18.5386
18.5386
18.5386
18.5386
18.5386
18.5386
18.6267
18.6266
18.6266
18.6266
18.6266
18.6266
18.7149
18.7149
18.7149
18.7149
18.7149
18.7149
18.8034
18.8034
18.8034
18.8034
18.8034
18.8034
18.8921
18.8921
18.8921
18.8921
18.8921
18.8921
18.9811
18.9811
18.9811
18.981
18.981
18.9811
19.0702
19.0702
19.0702
19.0702
19.0702
19.0702
19.1595
19.1595
19.1595
19.1595
19.1595
19.1595
19.2491
19.2491
19.2491
19.249
19.249
19.2491
19.3388
19.3388
19.3388
19.3388
19.3388
19.3388
19.4288
19.4288
19.4288
19.4288
19.4288
19.4288
19.5189
19.5189
19.5189
19.5189
19.5189
19.5189
19.6093
19.6093
19.6093
19.6093
19.6093
19.6093
19.6999
19.6999
19.6999
19.6999
19.6999
19.6999
19.7907
19.7907
19.7907
19.7907
19.7907
19.7907
19.8817
19.8817
19.8817
19.8817
19.8817
19.8817
19.9729
19.9729
19.9729
19.9729
19.9729
19.9729
20.0643
20.0643
20.0643
20.0643
20.0643
20.0643
20.156
20.156
20.156
20.1559
20.1559
20.156
20.2478
20.2478
20.2478
20.2478
20.2478
20.2478
20.3398
20.3398
20.3398
20.3398
20.3398
20.3398
20.4321
20.4321
20.4321
20.4321
20.4321
20.4321
20.5246
20.5246
20.5246
20.5246
20.5246
20.5246
20.6172
20.6172
20.6172
20.6172
20.6172
20.6172
20.7101
20.7101
20.7101
20.7101
20.7101
20.7101
20.8032
20.8032
20.8032
20.8032
20.8032
20.8032
20.8965
20.8965
20.8965
20.8965
20.8965
20.8965
20.99
20.99
20.99
20.99
20.99
20.99
21.0837
21.0837
21.0837
21.0837
21.0837
21.0837
21.1777
21.1777
21.1776
21.1776
21.1776
21.1776
21.2718
21.2718
21.2718
21.2718
21.2718
21.2718
21.3661
21.3661
21.3661
21.3661
21.3661
21.3661
21.4607
21.4607
21.4607
21.4607
21.4607
21.4607
21.5554
21.5554
21.5554
21.5554
21.5554
21.5554
21.6504
21.6504
21.6504
21.6504
21.6504
21.6504
21.7456
21.7456
21.7456
21.7456
21.7456
21.7456
21.841
21.841
21.841
21.841
21.841
21.841
21.9366
21.9366
21.9366
21.9366
21.9366
21.9366
22.0324
22.0324
22.0324
22.0324
22.0324
22.0324
22.1284
22.1284
22.1284
22.1284
22.1284
22.1284
22.2246
22.2246
22.2246
22.2246
22.2246
22.2246
22.321
22.321
22.321
22.321
22.321
22.321
22.4177
22.4177
22.4177
22.4177
22.4177
22.4177
22.5145
22.5145
22.5145
22.5145
22.5145
22.5145
22.6116
22.6116
22.6116
22.6116
22.6116
22.6116
22.7088
22.7088
22.7088
22.7088
22.7088
22.7088
22.8063
22.8063
22.8063
22.8063
22.8063
22.8063
22.904
22.904
22.904
22.904
22.904
22.904
23.0019
23.0019
23.0019
23.0019
23.0019
23.0019
23.1
23.1
23.1
23.1
23.1
23.1
23.1983
23.1983
23.1983
23.1983
23.1983
23.1983
23.2968
23.2968
23.2968
23.2968
23.2968
23.2968
23.3955
23.3955
23.3955
23.3955
23.3955
23.3955
23.4945
23.4945
23.4945
23.4945
23.4945
23.4945
23.5936
23.5936
23.5936
23.5936
23.5936
23.5936
23.693
23.693
23.693
23.693
23.693
23.693
23.7925
23.7925
23.7925
23.7925
23.7925
23.7925
23.8923
23.8923
23.8923
23.8923
23.8923
23.8923
23.9923
23.9923
23.9923
23.9923
23.9923
23.9923
24.0925
24.0925
24.0925
24.0925
24.0925
24.0925
24.1929
24.1929
24.1929
24.1929
24.1929
24.1929
24.2935
24.2935
24.2935
24.2935
24.2935
24.2935
24.3943
24.3943
24.3943
24.3943
24.3943
24.3943
24.4953
24.4953
24.4953
24.4953
24.4953
24.4953
24.5965
24.5965
24.5965
24.5965
24.5965
24.5965
24.698
24.698
24.698
24.698
24.698
24.698
24.7996
24.7996
24.7996
24.7996
24.7996
24.7996
24.9015
24.9015
24.9015
24.9015
24.9015
24.9015
25.0035
25.0035
25.0035
25.0035
25.0035
25.0035
25.1058
25.1058
25.1058
25.1058
25.1058
25.1058
25.2083
25.2083
25.2083
25.2083
25.2083
25.2083
25.311
25.311
25.311
25.311
25.311
25.311
25.4139
25.4139
25.4139
25.4139
25.4139
25.4139
25.517
25.517
25.517
25.517
25.517
25.517
25.6203
25.6203
25.6203
25.6203
25.6203
25.6203
25.7238
25.7238
25.7238
25.7238
25.7238
25.7238
25.8276
25.8276
25.8276
25.8276
25.8276
25.8276
25.9315
25.9315
25.9315
25.9315
25.9315
25.9315
26.0357
26.0357
26.0357
26.0357
26.0357
26.0357
26.14
26.14
26.14
26.14
26.14
26.14
26.2446
26.2446
26.2446
26.2446
26.2446
26.2446
26.3494
26.3494
26.3494
26.3494
26.3494
26.3494
26.4544
26.4544
26.4544
26.4544
26.4544
26.4544
26.5596
26.5596
26.5596
26.5596
26.5596
26.5596
26.665
26.665
26.665
26.665
26.665
26.665
26.7706
26.7706
26.7706
26.7706
26.7706
26.7706
26.8764
26.8764
26.8764
26.8764
26.8764
26.8764
26.9824
26.9824
26.9824
26.9824
26.9824
26.9824
27.0887
27.0887
27.0887
27.0887
27.0887
27.0887
27.1951
27.1951
27.1951
27.1951
27.1951
27.1951
27.3018
27.3018
27.3018
27.3018
27.3018
27.3018
27.4087
27.4087
27.4086
27.4086
27.4086
27.4086
27.5157
27.5157
27.5157
27.5157
27.5157
27.5157
27.623
27.623
27.623
27.623
27.623
27.623
27.7305
27.7305
27.7305
27.7305
27.7305
27.7305
27.8382
27.8382
27.8382
27.8382
27.8382
27.8382
27.9461
27.9461
27.9461
27.9461
27.9461
27.9461
28.0542
28.0542
28.0542
28.0542
28.0542
28.0542
28.1626
28.1626
28.1626
28.1625
28.1625
28.1625
28.2711
28.2711
28.2711
28.2711
28.2711
28.2711
28.3798
28.3798
28.3798
28.3798
28.3798
28.3798
28.4888
28.4888
28.4888
28.4888
28.4888
28.4888
28.598
28.598
28.5979
28.5979
28.5979
28.5979
28.7073
28.7073
28.7073
28.7073
28.7073
28.7073
28.8169
28.8169
28.8169
28.8169
28.8169
28.8169
28.9267
28.9267
28.9267
28.9267
28.9267
28.9267
29.0367
29.0367
29.0367
29.0367
29.0367
29.0367
29.1469
29.1469
29.1469
29.1469
29.1469
29.1469
29.2573
29.2573
29.2573
29.2573
29.2573
29.2573
29.3679
29.3679
29.3679
29.3679
29.3679
29.3679
29.4788
29.4788
29.4788
29.4788
29.4788
29.4788
29.5898
29.5898
29.5898
29.5898
29.5898
29.5898
29.7011
29.7011
29.701
29.701
29.701
29.701
29.8125
29.8125
29.8125
29.8125
29.8125
29.8125
29.9242
29.9242
29.9242
29.9242
29.9242
29.9242
30.0361
30.036
30.036
30.036
30.036
30.036
30.1481
30.1481
30.1481
30.1481
30.1481
30.1481
30.2604
30.2604
30.2604
30.2604
30.2604
30.2604
30.3729
30.3729
30.3729
30.3729
30.3729
30.3729
30.4856
30.4856
30.4856
30.4856
30.4856
30.4856
30.5986
30.5986
30.5986
30.5985
30.5985
30.5985
30.7117
30.7117
30.7117
30.7117
30.7117
30.7117
30.825
30.825
30.825
30.825
30.825
30.825
30.9386
30.9386
30.9386
30.9386
30.9386
30.9386
31.0523
31.0523
31.0523
31.0523
31.0523
31.0523
31.1663
31.1663
31.1663
31.1663
31.1663
31.1663
31.2805
31.2805
31.2804
31.2804
31.2804
31.2804
31.3948
31.3948
31.3948
31.3948
31.3948
31.3948
31.5094
31.5094
31.5094
31.5094
31.5094
31.5094
31.6242
31.6242
31.6242
31.6242
31.6242
31.6242
31.7392
31.7392
31.7392
31.7392
31.7392
31.7392
31.8544
31.8544
31.8544
31.8544
31.8544
31.8544
31.9699
31.9699
31.9699
31.9699
31.9699
31.9699
32.0855
32.0855
32.0855
32.0855
32.0855
32.0855
32.2013
32.2013
32.2013
32.2013
32.2013
32.2013
32.3174
32.3174
32.3174
32.3174
32.3174
32.3174
32.4337
32.4336
32.4336
32.4336
32.4336
32.4336
32.5501
32.5501
32.5501
32.5501
32.5501
32.5501
32.6668
32.6668
32.6668
32.6668
32.6668
32.6668
32.7837
32.7837
32.7837
32.7837
32.7837
32.7837
32.9008
32.9008
32.9008
32.9008
32.9008
32.9008
33.0181
33.0181
33.0181
33.0181
33.0181
33.0181
33.1356
33.1356
33.1356
33.1356
33.1356
33.1356
33.2533
33.2533
33.2533
33.2533
33.2533
33.2533
33.3712
33.3712
33.3712
33.3712
33.3712
33.3712
33.4894
33.4894
33.4894
33.4894
33.4894
33.4894
33.6077
33.6077
33.6077
33.6077
33.6077
33.6077
33.7263
33.7263
33.7263
33.7263
33.7263
33.7263
33.845
33.845
33.845
33.845
33.845
33.845
33.964
33.964
33.964
33.964
33.964
33.964
34.0832
34.0832
34.0832
34.0832
34.0832
34.0832
34.2026
34.2026
34.2026
34.2026
34.2026
34.2026
34.3222
34.3222
34.3222
34.3222
34.3222
34.3222
34.442
34.442
34.442
34.442
34.442
34.442
34.562
34.562
34.562
34.562
34.562
34.562
34.6822
34.6822
34.6822
34.6822
34.6822
34.6822
34.8027
34.8026
34.8026
34.8026
34.8026
34.8026
34.9233
34.9233
34.9233
34.9233
34.9233
34.9233
35.0441
35.0441
35.0441
35.0441
35.0441
35.0441
35.1652
35.1652
35.1652
35.1652
35.1652
35.1652
35.2865
35.2865
35.2865
35.2865
35.2865
35.2865
35.4079
35.4079
35.4079
35.4079
35.4079
35.4079
35.5296
35.5296
35.5296
35.5296
35.5296
35.5296
35.6515
35.6515
35.6515
35.6515
35.6515
35.6515
35.7736
35.7736
35.7736
35.7736
35.7736
35.7736
35.8959
35.8959
35.8959
35.8959
35.8959
35.8959
36.0185
36.0185
36.0184
36.0184
36.0184
36.0184
36.1412
36.1412
36.1412
36.1412
36.1412
36.1412
36.2641
36.2641
36.2641
36.2641
36.2641
36.2641
36.3873
36.3873
36.3873
36.3873
36.3873
36.3873
36.5106
36.5106
36.5106
36.5106
36.5106
36.5106
36.6342
36.6342
36.6342
36.6342
36.6342
36.6342
36.758
36.758
36.758
36.7579
36.7579
36.758
36.8819
36.8819
36.8819
36.8819
36.8819
36.8819
37.0061
37.0061
37.0061
37.0061
37.0061
37.0061
37.1305
37.1305
37.1305
37.1305
37.1305
37.1305
37.2551
37.2551
37.2551
37.2551
37.2551
37.2551