/*--------------------------------*- C++ -*----------------------------------*\
| =========                 |                                                 |
| \\      /  F ield         | OpenFOAM: The Open Source CFD Toolbox           |
|  \\    /   O peration     | Version:  2206                                  |
|   \\  /    A nd           | Website:  www.openfoam.com                      |
|    \\/     M anipulation  |                                                 |
\*---------------------------------------------------------------------------*/
FoamFile
{
    version     2.0;
    format      ascii;
    arch        "LSB;label=32;scalar=64";
    class       surfaceScalarField;
    location    "2";
    object      phi;
}
// * * * * * * * * * * * * * * * * * * * * * * * * * * * * * * * * * * * * * //

dimensions      [0 3 -1 0 0 0 0];

oriented        oriented;

internalField   nonuniform List<scalar> 
65994
(
1.86273e-22
-2.48456e-22
2.41523e-22
-5.45852e-23
-2.03965e-23
2.62582e-22
-2.95241e-22
2.75629e-22
-2.76144e-22
-1.84693e-23
-2.76146e-22
6.96546e-22
-9.46034e-22
7.21811e-22
-8.10782e-23
-2.91273e-22
1.27552e-21
-1.25184e-21
1.23601e-21
-1.07372e-21
-1.96675e-22
-1.34984e-21
1.43794e-21
-2.38045e-21
1.61695e-21
-2.56105e-22
-2.44455e-22
3.13938e-21
-2.0974e-21
3.09138e-21
-1.89039e-21
-4.01739e-22
-3.24023e-21
2.26421e-21
-4.64586e-21
2.55504e-21
-5.48471e-22
-3.54774e-22
6.04931e-21
-3.25808e-21
5.99476e-21
-2.94574e-21
-7.13904e-22
-6.18591e-21
3.08148e-21
-7.72179e-21
3.45949e-21
-9.20414e-22
-5.3332e-22
1.00463e-20
-4.50168e-21
9.96709e-21
-4.05365e-21
-1.15875e-21
-1.02396e-20
3.84086e-21
-1.15643e-20
4.30383e-21
-1.38498e-21
-6.90709e-22
1.50394e-20
-5.64994e-21
1.49251e-20
-5.08093e-21
-1.7287e-21
-1.53205e-20
4.56257e-21
-1.61258e-20
5.10871e-21
-1.93006e-21
-8.2942e-22
2.09784e-20
-6.72258e-21
2.08191e-20
-6.04218e-21
-2.40843e-21
-2.13627e-20
5.26374e-21
-2.1392e-20
5.89195e-21
-2.56151e-21
-9.60796e-22
2.78307e-20
-7.76142e-21
2.76191e-20
-6.9749e-21
-3.19539e-21
-2.83375e-20
5.95975e-21
-2.73475e-20
6.67103e-21
-3.26767e-21
-1.08976e-21
3.55939e-20
-8.78835e-21
3.53201e-20
-7.89649e-21
-4.08532e-21
-3.6234e-20
6.65336e-21
-3.4002e-20
7.44723e-21
-4.06257e-21
-1.21727e-21
4.42574e-20
-9.81376e-21
4.39157e-20
-8.81835e-21
-5.08144e-21
-4.50524e-20
7.3514e-21
-4.13519e-20
8.22838e-21
-4.93816e-21
-1.34428e-21
5.38312e-20
-1.08414e-20
5.34138e-20
-9.74174e-21
-6.18036e-21
-5.47942e-20
8.04881e-21
-4.9405e-20
9.00937e-21
-5.90356e-21
-1.47208e-21
6.43095e-20
-1.18722e-20
6.38108e-20
-1.06687e-20
-7.38623e-21
-6.54629e-20
8.74844e-21
-5.81519e-20
9.79248e-21
-6.94573e-21
-1.59968e-21
7.57018e-20
-1.29021e-20
7.51134e-20
-1.15937e-20
-8.6946e-21
-7.70567e-20
9.4437e-21
-6.76016e-20
1.05707e-20
-8.07943e-21
-1.72701e-21
8.79946e-20
-1.39298e-20
8.73114e-20
-1.25182e-20
-1.01102e-20
-8.95749e-20
1.014e-20
-7.77468e-20
1.13503e-20
-9.29385e-21
-1.85661e-21
1.01197e-19
-1.49594e-20
1.00412e-19
-1.34422e-20
-1.1629e-20
-1.03017e-19
1.08452e-20
-8.85742e-20
1.2129e-20
-1.05681e-20
-1.97616e-21
1.15331e-19
-1.59754e-20
1.14435e-19
-1.43535e-20
-1.32321e-20
-1.1737e-19
1.1532e-20
-1.00121e-19
1.29184e-20
-1.19616e-20
-2.11077e-21
1.30335e-19
-1.70195e-20
1.29322e-19
-1.52965e-20
-1.4972e-20
-1.32667e-19
1.22369e-20
-1.12355e-19
1.36988e-20
-1.34203e-20
-2.23138e-21
1.46267e-19
-1.80386e-20
1.45131e-19
-1.62111e-20
-1.67985e-20
-1.48878e-19
1.29357e-20
-1.25285e-19
1.44802e-20
-1.49588e-20
-2.36075e-21
1.63113e-19
-1.90702e-20
1.61844e-19
-1.7137e-20
-1.87283e-20
-1.66015e-19
1.36312e-20
-1.38917e-19
1.52585e-20
-1.6587e-20
-2.48871e-21
1.80861e-19
-2.00987e-20
1.79455e-19
-1.80617e-20
-2.07646e-20
-1.84077e-19
1.43314e-20
-1.53243e-19
1.60424e-20
-1.82925e-20
-2.6163e-21
1.99523e-19
-2.11293e-20
1.97972e-19
-1.89872e-20
-2.29036e-20
-2.03064e-19
1.50304e-20
-1.68274e-19
1.68251e-20
-2.00881e-20
-2.74493e-21
2.19092e-19
-2.21631e-20
2.17389e-19
-1.99169e-20
-2.51503e-20
-2.22981e-19
1.57314e-20
-1.84005e-19
1.76095e-20
-2.19652e-20
-2.87259e-21
2.39576e-19
-2.31955e-20
2.37713e-19
-2.08444e-20
-2.75006e-20
-2.43825e-19
1.64298e-20
-2.00436e-19
1.83911e-20
-2.39286e-20
-3.00076e-21
2.60967e-19
-2.4227e-20
2.58939e-19
-2.17715e-20
-2.99565e-20
-2.65597e-19
1.71294e-20
-2.17562e-19
1.91744e-20
-2.59696e-20
-3.12831e-21
2.83272e-19
-2.5257e-20
2.8107e-19
-2.26965e-20
-3.2515e-20
-2.88293e-19
1.78278e-20
-2.3539e-19
1.99563e-20
-2.80981e-20
-3.2562e-21
3.06485e-19
-2.62883e-20
3.04102e-19
-2.36237e-20
-3.51795e-20
-3.11917e-19
1.85286e-20
-2.53917e-19
2.07404e-20
-3.03084e-20
-3.3838e-21
3.3061e-19
-2.73204e-20
3.2804e-19
-2.45511e-20
-3.79479e-20
-3.36468e-19
1.92281e-20
-2.73147e-19
2.15239e-20
-3.26062e-20
-3.51221e-21
3.55645e-19
-2.8354e-20
3.5288e-19
-2.54802e-20
-4.08228e-20
-3.61948e-19
1.99291e-20
-2.93074e-19
2.23079e-20
-3.4983e-20
-3.64026e-21
3.81595e-19
-2.93864e-20
3.78628e-19
-2.64074e-20
-4.38005e-20
-3.88356e-19
2.06279e-20
-3.13704e-19
2.30907e-20
-3.74478e-20
-3.76831e-21
4.08452e-19
-3.04187e-20
4.05277e-19
-2.73356e-20
-4.6885e-20
-4.15691e-19
2.13272e-20
-3.35032e-19
2.38733e-20
-3.99946e-20
-3.89576e-21
4.3622e-19
-3.1449e-20
4.32829e-19
-2.82613e-20
-5.00733e-20
-4.43953e-19
2.20247e-20
-3.57058e-19
2.46535e-20
-4.26254e-20
-4.02332e-21
4.64897e-19
-3.24777e-20
4.61283e-19
-2.91857e-20
-5.33655e-20
-4.73138e-19
2.27229e-20
-3.79779e-19
2.5436e-20
-4.53353e-20
-4.15022e-21
4.94484e-19
-3.35058e-20
4.9064e-19
-3.01094e-20
-5.67608e-20
-5.03248e-19
2.34206e-20
-4.03199e-19
2.62168e-20
-4.81311e-20
-4.27772e-21
5.24979e-19
-3.45352e-20
5.20898e-19
-3.10347e-20
-6.02611e-20
-5.34282e-19
2.41203e-20
-4.27318e-19
2.69998e-20
-5.10089e-20
-4.40525e-21
5.56386e-19
-3.5566e-20
5.5206e-19
-3.19608e-20
-6.38652e-20
-5.66243e-19
2.48193e-20
-4.52138e-19
2.77826e-20
-5.39735e-20
-4.53335e-21
5.88701e-19
-3.65983e-20
5.84124e-19
-3.28888e-20
-6.75754e-20
-5.99132e-19
2.552e-20
-4.77656e-19
2.85663e-20
-5.70178e-20
-4.66131e-21
6.2193e-19
-3.76304e-20
6.17095e-19
-3.38158e-20
-7.13887e-20
-6.32948e-19
2.62194e-20
-5.03877e-19
2.93497e-20
-6.01493e-20
-4.78952e-21
6.56068e-19
-3.86634e-20
6.50968e-19
-3.47445e-20
-7.53084e-20
-6.67692e-19
2.69195e-20
-5.30797e-19
3.01332e-20
-6.33632e-20
-4.91709e-21
6.91118e-19
-3.96949e-20
6.85745e-19
-3.56714e-20
-7.93322e-20
-7.03364e-19
2.7618e-20
-5.58417e-19
3.09151e-20
-6.66625e-20
-5.04504e-21
7.27077e-19
-4.0726e-20
7.21425e-19
-3.6598e-20
-8.34612e-20
-7.39962e-19
2.83176e-20
-5.86732e-19
3.1698e-20
-7.00404e-20
-5.17248e-21
7.63949e-19
-4.17559e-20
7.5801e-19
-3.75231e-20
-8.76927e-20
-7.77485e-19
2.90162e-20
-6.15749e-19
3.24802e-20
-7.35054e-20
-5.30058e-21
8.01729e-19
-4.27877e-20
7.95496e-19
-3.84506e-20
-9.20305e-20
-8.15935e-19
2.97166e-20
-6.45466e-19
3.32641e-20
-7.70529e-20
-5.42821e-21
8.40421e-19
-4.38197e-20
8.33888e-19
-3.9378e-20
-9.64723e-20
-8.55313e-19
3.04159e-20
-6.75884e-19
3.4047e-20
-8.06868e-20
-5.55669e-21
8.80023e-19
-4.48528e-20
8.73182e-19
-4.03066e-20
-1.0102e-19
-8.9562e-19
3.11163e-20
-7.07e-19
3.48309e-20
-8.44003e-20
-5.68421e-21
9.20538e-19
-4.5884e-20
9.13382e-19
-4.12328e-20
-1.05671e-19
-9.36853e-19
3.18136e-20
-7.38817e-19
3.56115e-20
-8.8202e-20
-5.8123e-21
9.61959e-19
-4.69144e-20
9.54481e-19
-4.21592e-20
-1.10429e-19
-9.79012e-19
3.25114e-20
-7.7133e-19
3.63927e-20
-9.20854e-20
-5.94021e-21
1.00429e-18
-4.79436e-20
9.96483e-19
-4.30837e-20
-1.1529e-19
-1.0221e-18
3.32111e-20
-8.04537e-19
3.71719e-20
-9.60446e-20
-6.06559e-21
1.04754e-18
-4.89684e-20
1.03939e-18
-4.40038e-20
-1.20249e-19
-1.0661e-18
3.39066e-20
-8.38446e-19
3.7958e-20
-1.00096e-19
-6.19378e-21
1.09168e-18
-5.00009e-20
1.08319e-18
-4.49334e-20
-1.25321e-19
-1.11103e-18
3.46063e-20
-8.73051e-19
3.8738e-20
-1.04226e-19
-6.31983e-21
1.13674e-18
-5.10277e-20
1.1279e-18
-4.58557e-20
-1.30492e-19
-1.15689e-18
3.53054e-20
-9.08354e-19
3.95203e-20
-1.08438e-19
-6.44773e-21
1.18271e-18
-5.20581e-20
1.17352e-18
-4.67813e-20
-1.35767e-19
-1.20367e-18
3.60031e-20
-9.44358e-19
4.03013e-20
-1.12737e-19
-6.57599e-21
1.22959e-18
-5.30891e-20
1.22003e-18
-4.7708e-20
-1.41148e-19
-1.25138e-18
3.67034e-20
-9.81058e-19
4.1085e-20
-1.17116e-19
-6.70346e-21
1.27738e-18
-5.41202e-20
1.26745e-18
-4.86342e-20
-1.46632e-19
-1.30001e-18
3.74025e-20
-1.01846e-18
4.18678e-20
-1.21582e-19
-6.83188e-21
1.32608e-18
-5.51531e-20
1.31577e-18
-4.95627e-20
-1.52223e-19
-1.34957e-18
3.81026e-20
-1.05656e-18
4.26514e-20
-1.2613e-19
-6.95948e-21
1.37569e-18
-5.61847e-20
1.36499e-18
-5.04897e-20
-1.57918e-19
-1.40006e-18
3.88012e-20
-1.09537e-18
4.34334e-20
-1.30764e-19
-7.08753e-21
1.42621e-18
-5.7216e-20
1.41512e-18
-5.14166e-20
-1.63718e-19
-1.45148e-18
3.95008e-20
-1.13486e-18
4.42163e-20
-1.35477e-19
-7.21491e-21
1.47764e-18
-5.8246e-20
1.46615e-18
-5.23418e-20
-1.69621e-19
-1.50382e-18
4.01993e-20
-1.17506e-18
4.49984e-20
-1.40277e-19
-7.34283e-21
1.52998e-18
-5.92772e-20
1.51809e-18
-5.32687e-20
-1.75629e-19
-1.55709e-18
4.08992e-20
-1.21596e-18
4.57818e-20
-1.45159e-19
-7.47043e-21
1.58324e-18
-6.03086e-20
1.57093e-18
-5.41955e-20
-1.81742e-19
-1.61129e-18
4.15985e-20
-1.25756e-18
4.65648e-20
-1.50126e-19
-7.59856e-21
1.6374e-18
-6.13409e-20
1.62467e-18
-5.51234e-20
-1.8796e-19
-1.66641e-18
4.22987e-20
-1.29986e-18
4.73481e-20
-1.55174e-19
-7.7263e-21
1.69247e-18
-6.23724e-20
1.67932e-18
-5.605e-20
-1.94282e-19
-1.72246e-18
4.29976e-20
-1.34286e-18
4.81308e-20
-1.60309e-19
-7.85433e-21
1.74846e-18
-6.34043e-20
1.73486e-18
-5.69775e-20
-2.0071e-19
-1.77944e-18
4.36968e-20
-1.38656e-18
4.89134e-20
-1.65526e-19
-7.9818e-21
1.80535e-18
-6.44347e-20
1.79132e-18
-5.79035e-20
-2.07241e-19
-1.83734e-18
4.43949e-20
-1.43095e-18
4.96947e-20
-1.70827e-19
-8.10955e-21
1.86316e-18
-6.54646e-20
1.84867e-18
-5.8829e-20
-2.13878e-19
-1.89617e-18
4.50938e-20
-1.47604e-18
5.04771e-20
-1.76208e-19
-8.23658e-21
1.92187e-18
-6.64935e-20
1.90693e-18
-5.97534e-20
-2.20617e-19
-1.95592e-18
4.57919e-20
-1.52184e-18
5.12586e-20
-1.81675e-19
-8.36435e-21
1.98149e-18
-6.75238e-20
1.96609e-18
-6.06794e-20
-2.27461e-19
-2.0166e-18
4.64914e-20
-1.56833e-18
5.20415e-20
-1.87225e-19
-8.49187e-21
2.04203e-18
-6.85546e-20
2.02615e-18
-6.16057e-20
-2.34409e-19
-2.07821e-18
4.71904e-20
-1.61552e-18
5.28242e-20
-1.92859e-19
-8.6199e-21
2.10347e-18
-6.95864e-20
2.08712e-18
-6.2533e-20
-2.41463e-19
-2.14074e-18
4.78904e-20
-1.66341e-18
5.36074e-20
-1.98575e-19
-8.74759e-21
2.16583e-18
-7.06177e-20
2.14899e-18
-6.34596e-20
-2.48621e-19
-2.2042e-18
4.85895e-20
-1.712e-18
5.43903e-20
-2.04377e-19
-8.87565e-21
2.22909e-18
-7.16498e-20
2.21176e-18
-6.43872e-20
-2.55884e-19
-2.26859e-18
4.92891e-20
-1.76129e-18
5.51733e-20
-2.10261e-19
-9.00324e-21
2.29327e-18
-7.26808e-20
2.27544e-18
-6.53137e-20
-2.63251e-19
-2.3339e-18
4.99877e-20
-1.81128e-18
5.59554e-20
-2.1623e-19
-9.13115e-21
2.35835e-18
-7.37118e-20
2.34002e-18
-6.62402e-20
-2.70724e-19
-2.40014e-18
5.06872e-20
-1.86196e-18
5.67382e-20
-2.2228e-19
-9.25841e-21
2.42435e-18
-7.47418e-20
2.4055e-18
-6.71656e-20
-2.78299e-19
-2.46731e-18
5.13859e-20
-1.91335e-18
5.75204e-20
-2.28415e-19
-9.38649e-21
2.49126e-18
-7.57732e-20
2.47189e-18
-6.80926e-20
-2.8598e-19
-2.5354e-18
5.20857e-20
-1.96543e-18
5.83037e-20
-2.34633e-19
-9.51407e-21
2.55908e-18
-7.68045e-20
2.53918e-18
-6.90194e-20
-2.93765e-19
-2.60442e-18
5.27847e-20
-2.01822e-18
5.90862e-20
-2.40936e-19
-9.64236e-21
2.6278e-18
-7.78368e-20
2.60737e-18
-6.9947e-20
-3.01656e-19
-2.67437e-18
5.34849e-20
-2.0717e-18
5.98698e-20
-2.4732e-19
-9.76965e-21
2.69744e-18
-7.88676e-20
2.67647e-18
-7.08732e-20
-3.0965e-19
-2.74524e-18
5.41831e-20
-2.12589e-18
6.06515e-20
-2.5379e-19
-9.89805e-21
2.76799e-18
-7.98992e-20
2.74647e-18
-7.18005e-20
-3.1775e-19
-2.81704e-18
5.48819e-20
-2.18077e-18
6.14338e-20
-2.60343e-19
-1.00255e-20
2.83945e-18
-8.09291e-20
2.81737e-18
-7.27258e-20
-3.25954e-19
-2.88977e-18
5.55803e-20
-2.23635e-18
6.22143e-20
-2.66979e-19
-1.01527e-20
2.91182e-18
-8.19576e-20
2.88918e-18
-7.36499e-20
-3.34261e-19
-2.96342e-18
5.62787e-20
-2.29263e-18
6.29984e-20
-2.73696e-19
-1.02794e-20
2.98509e-18
-8.2987e-20
2.96189e-18
-7.45753e-20
-3.42673e-19
-3.03799e-18
5.6977e-20
-2.34961e-18
6.37791e-20
-2.80498e-19
-1.04071e-20
3.05928e-18
-8.40167e-20
3.0355e-18
-7.55006e-20
-3.51189e-19
-3.11349e-18
5.76765e-20
-2.40728e-18
6.4562e-20
-2.87382e-19
-1.05345e-20
3.13438e-18
-8.50471e-20
3.11001e-18
-7.64265e-20
-3.59808e-19
-3.18992e-18
5.83749e-20
-2.46566e-18
6.53439e-20
-2.94352e-19
-1.0663e-20
3.21039e-18
-8.60791e-20
3.18543e-18
-7.73539e-20
-3.68534e-19
-3.26727e-18
5.90752e-20
-2.52473e-18
6.61276e-20
-3.01403e-19
-1.07902e-20
3.2873e-18
-8.71099e-20
3.26175e-18
-7.82801e-20
-3.77363e-19
-3.34555e-18
5.97741e-20
-2.58451e-18
6.69101e-20
-3.08539e-19
-1.09187e-20
3.36513e-18
-8.81424e-20
3.33897e-18
-7.9208e-20
-3.86297e-19
-3.42476e-18
6.04738e-20
-2.64498e-18
6.76932e-20
-3.15759e-19
-1.10462e-20
3.44387e-18
-8.91735e-20
3.4171e-18
-8.01346e-20
-3.95336e-19
-3.5049e-18
6.11723e-20
-2.70615e-18
6.84751e-20
-3.23063e-19
-1.11744e-20
3.52352e-18
-9.02047e-20
3.49613e-18
-8.10614e-20
-4.04481e-19
-3.58596e-18
6.18722e-20
-2.76802e-18
6.92585e-20
-3.30448e-19
-1.13011e-20
3.60408e-18
-9.12343e-20
3.57606e-18
-8.19864e-20
-4.13727e-19
-3.66794e-18
6.25706e-20
-2.8306e-18
7.00404e-20
-3.37918e-19
-1.14295e-20
3.68555e-18
-9.2266e-20
3.6569e-18
-8.29136e-20
-4.2308e-19
-3.75086e-18
6.32704e-20
-2.89387e-18
7.08236e-20
-3.45471e-19
-1.1557e-20
3.76793e-18
-9.32972e-20
3.73864e-18
-8.38403e-20
-4.32537e-19
-3.8347e-18
6.39692e-20
-2.95784e-18
7.1606e-20
-3.5311e-19
-1.16855e-20
3.85122e-18
-9.43296e-20
3.82128e-18
-8.47681e-20
-4.421e-19
-3.91947e-18
6.46697e-20
-3.0225e-18
7.23899e-20
-3.60829e-19
-1.18125e-20
3.93542e-18
-9.53601e-20
3.90483e-18
-8.56941e-20
-4.51765e-19
-4.00516e-18
6.53678e-20
-3.08787e-18
7.31715e-20
-3.68635e-19
-1.19413e-20
4.02054e-18
-9.63925e-20
3.98928e-18
-8.66219e-20
-4.61538e-19
-4.09178e-18
6.6067e-20
-3.15394e-18
7.39542e-20
-3.76523e-19
-1.20687e-20
4.10656e-18
-9.74226e-20
4.07463e-18
-8.75475e-20
-4.71413e-19
-4.17933e-18
6.67654e-20
-3.22071e-18
7.47348e-20
-3.84494e-19
-1.21961e-20
4.19349e-18
-9.84517e-20
4.16089e-18
-8.84721e-20
-4.81393e-19
-4.2678e-18
6.74646e-20
-3.28817e-18
7.55197e-20
-3.92547e-19
-1.23223e-20
4.28133e-18
-9.94808e-20
4.24805e-18
-8.93972e-20
-4.91476e-19
-4.3572e-18
6.81627e-20
-3.35633e-18
7.63003e-20
-4.00684e-19
-1.24506e-20
4.37008e-18
-1.00511e-19
4.33611e-18
-9.03234e-20
-5.01664e-19
-4.44752e-18
6.88627e-20
-3.4252e-18
7.70836e-20
-4.08904e-19
-1.25779e-20
4.45974e-18
-1.01542e-19
4.42507e-18
-9.12496e-20
-5.11956e-19
-4.53877e-18
6.95609e-20
-3.49476e-18
7.78652e-20
-4.1721e-19
-1.27071e-20
4.55031e-18
-1.02575e-19
4.51494e-18
-9.2178e-20
-5.22355e-19
-4.63095e-18
7.02621e-20
-3.56502e-18
7.865e-20
-4.25596e-19
-1.28334e-20
4.6418e-18
-1.03606e-19
4.60571e-18
-9.31037e-20
-5.32855e-19
-4.72405e-18
7.09601e-20
-3.63598e-18
7.94314e-20
-4.3407e-19
-1.2963e-20
4.73419e-18
-1.04639e-19
4.69739e-18
-9.40327e-20
-5.43464e-19
-4.81809e-18
7.16601e-20
-3.70764e-18
8.02149e-20
-4.42626e-19
-1.30904e-20
4.8275e-18
-1.0567e-19
4.78997e-18
-9.4959e-20
-5.54176e-19
-4.91304e-18
7.23584e-20
-3.78e-18
8.09955e-20
-4.51267e-19
-1.32186e-20
4.92171e-18
-1.06701e-19
4.88345e-18
-9.58851e-20
-5.64992e-19
-5.00893e-18
7.30592e-20
-3.85306e-18
8.17821e-20
-4.59986e-19
-1.3344e-20
5.01684e-18
-1.0773e-19
4.97783e-18
-9.68101e-20
-5.75911e-19
-5.10574e-18
7.37568e-20
-3.92682e-18
8.25621e-20
-4.68794e-19
-1.34738e-20
5.11287e-18
-1.08763e-19
5.07312e-18
-9.77386e-20
-5.86938e-19
-5.20348e-18
7.44576e-20
-4.00128e-18
8.33463e-20
-4.77683e-19
-1.36011e-20
5.20982e-18
-1.09795e-19
5.16931e-18
-9.86655e-20
-5.98067e-19
-5.30214e-18
7.51555e-20
-4.07644e-18
8.41265e-20
-4.8666e-19
-1.37311e-20
5.30767e-18
-1.10829e-19
5.26641e-18
-9.95943e-20
-6.09304e-19
-5.40174e-18
7.58565e-20
-4.15229e-18
8.49132e-20
-4.95715e-19
-1.38564e-20
5.40644e-18
-1.11857e-19
5.36441e-18
-1.00519e-19
-6.20644e-19
-5.50226e-18
7.65509e-20
-4.22885e-18
8.56884e-20
-5.04862e-19
-1.39874e-20
5.50611e-18
-1.12889e-19
5.4633e-18
-1.01446e-19
-6.32092e-19
-5.6037e-18
7.72483e-20
-4.30611e-18
8.64701e-20
-5.14088e-19
-1.41165e-20
5.60669e-18
-1.13919e-19
5.5631e-18
-1.0237e-19
-6.43641e-19
-5.70607e-18
7.79598e-20
-4.38404e-18
8.72519e-20
-5.23363e-19
-1.42292e-20
5.70822e-18
-1.14927e-19
5.66384e-18
-1.03275e-19
-6.55265e-19
-5.80935e-18
7.86402e-20
-4.4627e-18
8.80424e-20
-5.32779e-19
-1.43724e-20
5.81059e-18
-1.15986e-19
5.76542e-18
-1.04232e-19
-6.67045e-19
-5.91358e-18
7.93487e-20
-4.54205e-18
8.88227e-20
-5.42249e-19
-1.44897e-20
5.91391e-18
-1.17e-19
5.86793e-18
-1.05142e-19
-6.78902e-19
-6.01872e-18
8.00486e-20
-4.62209e-18
8.96059e-20
-5.51799e-19
-1.46179e-20
6.01813e-18
-1.18031e-19
5.97135e-18
-1.06067e-19
-6.90862e-19
-6.12479e-18
8.07438e-20
-4.70283e-18
9.03824e-20
-5.61439e-19
-1.47486e-20
6.12327e-18
-1.19063e-19
6.07566e-18
-1.06994e-19
-7.0293e-19
-6.23178e-18
8.14451e-20
-4.78427e-18
9.11691e-20
-5.71156e-19
-1.48737e-20
6.22931e-18
-1.20092e-19
6.18088e-18
-1.07919e-19
-7.15099e-19
-6.3397e-18
8.21424e-20
-4.86642e-18
9.19489e-20
-5.80964e-19
-1.50044e-20
6.33627e-18
-1.21126e-19
6.28701e-18
-1.08849e-19
-7.27377e-19
-6.44855e-18
8.28431e-20
-4.94926e-18
9.2733e-20
-5.90853e-19
-1.51316e-20
6.44413e-18
-1.22157e-19
6.39403e-18
-1.09775e-19
-7.39759e-19
-6.55833e-18
8.35411e-20
-5.0328e-18
9.35134e-20
-6.00828e-19
-1.52605e-20
6.55291e-18
-1.23189e-19
6.50196e-18
-1.10702e-19
-7.52246e-19
-6.66903e-18
8.42418e-20
-5.11704e-18
9.42996e-20
-6.10881e-19
-1.53859e-20
6.66259e-18
-1.24218e-19
6.6108e-18
-1.11627e-19
-7.64835e-19
-6.78066e-18
8.49398e-20
-5.20198e-18
9.50802e-20
-6.21021e-19
-1.5515e-20
6.77319e-18
-1.2525e-19
6.72053e-18
-1.12555e-19
-7.77531e-19
-6.89321e-18
8.564e-20
-5.28762e-18
9.58638e-20
-6.31244e-19
-1.56422e-20
6.8847e-18
-1.26281e-19
6.83117e-18
-1.13481e-19
-7.9033e-19
-7.00669e-18
8.63383e-20
-5.37396e-18
9.66455e-20
-6.41553e-19
-1.57715e-20
6.99711e-18
-1.27315e-19
6.94271e-18
-1.1441e-19
-8.03236e-19
-7.1211e-18
8.70393e-20
-5.461e-18
9.74301e-20
-6.51942e-19
-1.58979e-20
7.11044e-18
-1.28345e-19
7.05516e-18
-1.15335e-19
-8.16244e-19
-7.23644e-18
8.77372e-20
-5.54874e-18
9.82114e-20
-6.62418e-19
-1.60272e-20
7.22468e-18
-1.29378e-19
7.16851e-18
-1.16264e-19
-8.2936e-19
-7.3527e-18
8.84367e-20
-5.63717e-18
9.89943e-20
-6.72976e-19
-1.61545e-20
7.33983e-18
-1.30408e-19
7.28276e-18
-1.17189e-19
-8.42579e-19
-7.46989e-18
8.91351e-20
-5.72631e-18
9.97751e-20
-6.83618e-19
-1.62822e-20
7.45588e-18
-1.31438e-19
7.39792e-18
-1.18114e-19
-8.55902e-19
-7.58801e-18
8.98345e-20
-5.81614e-18
1.0056e-19
-6.94341e-19
-1.64083e-20
7.57285e-18
-1.32467e-19
7.51398e-18
-1.1904e-19
-8.69328e-19
-7.70704e-18
9.05326e-20
-5.90667e-18
1.01341e-19
-7.05148e-19
-1.65365e-20
7.69073e-18
-1.33497e-19
7.63094e-18
-1.19966e-19
-8.8286e-19
-7.82701e-18
9.12323e-20
-5.9979e-18
1.02124e-19
-7.16038e-19
-1.66638e-20
7.80952e-18
-1.34528e-19
7.7488e-18
-1.20892e-19
-8.96495e-19
-7.9479e-18
9.19307e-20
-6.08984e-18
1.02906e-19
-7.27014e-19
-1.67925e-20
7.92922e-18
-1.3556e-19
7.86757e-18
-1.21819e-19
-9.10236e-19
-8.06972e-18
9.2631e-20
-6.18247e-18
1.03689e-19
-7.38071e-19
-1.69194e-20
8.04983e-18
-1.3659e-19
7.98724e-18
-1.22745e-19
-9.2408e-19
-8.19247e-18
9.33296e-20
-6.2758e-18
1.04472e-19
-7.49213e-19
-1.7048e-20
8.17135e-18
-1.37623e-19
8.10782e-18
-1.23673e-19
-9.38031e-19
-8.31614e-18
9.40292e-20
-6.36982e-18
1.05255e-19
-7.60439e-19
-1.71755e-20
8.29378e-18
-1.38654e-19
8.2293e-18
-1.24599e-19
-9.52085e-19
-8.44074e-18
9.47276e-20
-6.46455e-18
1.06036e-19
-7.71749e-19
-1.73038e-20
8.41711e-18
-1.39685e-19
8.35168e-18
-1.25526e-19
-9.66245e-19
-8.56626e-18
9.54277e-20
-6.55998e-18
1.0682e-19
-7.83139e-19
-1.74303e-20
8.54137e-18
-1.40714e-19
8.47496e-18
-1.26451e-19
-9.80507e-19
-8.69272e-18
9.6126e-20
-6.65611e-18
1.07602e-19
-7.94615e-19
-1.75588e-20
8.66653e-18
-1.41746e-19
8.59915e-18
-1.27378e-19
-9.94875e-19
-8.82009e-18
9.68257e-20
-6.75293e-18
1.08385e-19
-8.06174e-19
-1.76863e-20
8.7926e-18
-1.42777e-19
8.72424e-18
-1.28305e-19
-1.00935e-18
-8.9484e-18
9.75245e-20
-6.85046e-18
1.09167e-19
-8.17819e-19
-1.78148e-20
8.91958e-18
-1.43809e-19
8.85023e-18
-1.29232e-19
-1.02393e-18
-9.07763e-18
9.82247e-20
-6.94868e-18
1.09951e-19
-8.29544e-19
-1.79417e-20
9.04747e-18
-1.4484e-19
8.97713e-18
-1.30158e-19
-1.03861e-18
-9.20779e-18
9.89228e-20
-7.04761e-18
1.10732e-19
-8.41355e-19
-1.80704e-20
9.17627e-18
-1.45872e-19
9.10493e-18
-1.31086e-19
-1.05339e-18
-9.33888e-18
9.96218e-20
-7.14723e-18
1.11515e-19
-8.53249e-19
-1.81978e-20
9.30598e-18
-1.46902e-19
9.23364e-18
-1.32011e-19
-1.06828e-18
-9.47089e-18
1.00321e-19
-7.24755e-18
1.12296e-19
-8.65225e-19
-1.83251e-20
9.43661e-18
-1.47931e-19
9.36324e-18
-1.32936e-19
-1.08328e-18
-9.60382e-18
1.01019e-19
-7.34857e-18
1.1308e-19
-8.77284e-19
-1.84517e-20
9.56814e-18
-1.48961e-19
9.49375e-18
-1.33862e-19
-1.09838e-18
-9.73768e-18
1.01718e-19
-7.45029e-18
1.13861e-19
-8.89427e-19
-1.85796e-20
9.70058e-18
-1.49991e-19
9.62516e-18
-1.34787e-19
-1.11358e-18
-9.87247e-18
1.02417e-19
-7.5527e-18
1.14644e-19
-9.01652e-19
-1.8707e-20
9.83393e-18
-1.51021e-19
9.75748e-18
-1.35713e-19
-1.12889e-18
-1.00082e-17
1.03116e-19
-7.65582e-18
1.15426e-19
-9.13963e-19
-1.88355e-20
9.96819e-18
-1.52053e-19
9.8907e-18
-1.36641e-19
-1.1443e-18
-1.01448e-17
1.03816e-19
-7.75963e-18
1.16209e-19
-9.26356e-19
-1.89626e-20
1.01034e-17
-1.53084e-19
1.00248e-17
-1.37566e-19
-1.15982e-18
-1.02824e-17
1.04515e-19
-7.86415e-18
1.16992e-19
-9.38833e-19
-1.90909e-20
1.02394e-17
-1.54116e-19
1.01598e-17
-1.38494e-19
-1.17544e-18
-1.04209e-17
1.05214e-19
-7.96936e-18
1.17775e-19
-9.51394e-19
-1.92185e-20
1.03764e-17
-1.55147e-19
1.02958e-17
-1.3942e-19
-1.19117e-18
-1.05603e-17
1.05913e-19
-8.07527e-18
1.18557e-19
-9.64039e-19
-1.93466e-20
1.05143e-17
-1.56178e-19
1.04326e-17
-1.40347e-19
-1.207e-18
-1.07007e-17
1.06612e-19
-8.18189e-18
1.1934e-19
-9.76765e-19
-1.94735e-20
1.06532e-17
-1.57208e-19
1.05703e-17
-1.41273e-19
-1.22293e-18
-1.08419e-17
1.07311e-19
-8.2892e-18
1.20122e-19
-9.89576e-19
-1.96017e-20
1.07929e-17
-1.58239e-19
1.0709e-17
-1.42199e-19
-1.23897e-18
-1.09841e-17
1.0801e-19
-8.39721e-18
1.20905e-19
-1.00247e-18
-1.97293e-20
1.09335e-17
-1.5927e-19
1.08485e-17
-1.43126e-19
-1.25511e-18
-1.11273e-17
1.08709e-19
-8.50592e-18
1.21687e-19
-1.01545e-18
-1.98574e-20
1.10751e-17
-1.60302e-19
1.0989e-17
-1.44053e-19
-1.27136e-18
-1.12713e-17
1.09409e-19
-8.61533e-18
1.2247e-19
-1.02851e-18
-1.99847e-20
1.12175e-17
-1.61332e-19
1.11303e-17
-1.44979e-19
-1.28772e-18
-1.14163e-17
1.10108e-19
-8.72543e-18
1.23253e-19
-1.04166e-18
-2.01129e-20
1.13609e-17
-1.62364e-19
1.12726e-17
-1.45906e-19
-1.30417e-18
-1.15622e-17
1.10807e-19
-8.83624e-18
1.24035e-19
-1.05488e-18
-2.02404e-20
1.15052e-17
-1.63394e-19
1.14157e-17
-1.46832e-19
-1.32074e-18
-1.1709e-17
1.11505e-19
-8.94775e-18
1.24817e-19
-1.0682e-18
-2.03684e-20
1.16503e-17
-1.64425e-19
1.15598e-17
-1.47758e-19
-1.3374e-18
-1.18568e-17
1.12205e-19
-9.05995e-18
1.256e-19
-1.08159e-18
-2.0495e-20
1.17964e-17
-1.65454e-19
1.17047e-17
-1.48683e-19
-1.35417e-18
-1.20055e-17
1.12903e-19
-9.17286e-18
1.26382e-19
-1.09507e-18
-2.06231e-20
1.19434e-17
-1.66485e-19
1.18506e-17
-1.4961e-19
-1.37105e-18
-1.21551e-17
1.13603e-19
-9.28646e-18
1.27165e-19
-1.10863e-18
-2.07506e-20
1.20914e-17
-1.67516e-19
1.19974e-17
-1.50536e-19
-1.38803e-18
-1.23056e-17
1.14302e-19
-9.40076e-18
1.27947e-19
-1.12228e-18
-2.08788e-20
1.22402e-17
-1.68548e-19
1.2145e-17
-1.51463e-19
-1.40511e-18
-1.24571e-17
1.15001e-19
-9.51576e-18
1.2873e-19
-1.13601e-18
-2.10061e-20
1.23899e-17
-1.69578e-19
1.22936e-17
-1.52389e-19
-1.4223e-18
-1.26095e-17
1.157e-19
-9.63146e-18
1.29513e-19
-1.14982e-18
-2.11344e-20
1.25406e-17
-1.7061e-19
1.24431e-17
-1.53317e-19
-1.4396e-18
-1.27628e-17
1.164e-19
-9.74786e-18
1.30295e-19
-1.16371e-18
-2.12619e-20
1.26921e-17
-1.71641e-19
1.25934e-17
-1.54243e-19
-1.457e-18
-1.2917e-17
1.17098e-19
-9.86496e-18
1.31077e-19
-1.1777e-18
-2.139e-20
1.28446e-17
-1.72672e-19
1.27447e-17
-1.55169e-19
-1.4745e-18
-1.30722e-17
1.17798e-19
-9.98276e-18
1.31861e-19
-1.19176e-18
-2.15167e-20
1.2998e-17
-1.73702e-19
1.28969e-17
-1.56095e-19
-1.49211e-18
-1.32283e-17
1.18496e-19
-1.01013e-17
1.32643e-19
-1.2059e-18
-2.16451e-20
1.31523e-17
-1.74733e-19
1.305e-17
-1.57022e-19
-1.50982e-18
-1.33853e-17
1.19196e-19
-1.02205e-17
1.33426e-19
-1.22013e-18
-2.17726e-20
1.33075e-17
-1.75764e-19
1.3204e-17
-1.57948e-19
-1.52763e-18
-1.35433e-17
1.19895e-19
-1.03403e-17
1.34208e-19
-1.23445e-18
-2.19011e-20
1.34636e-17
-1.76796e-19
1.33589e-17
-1.58876e-19
-1.54556e-18
-1.37021e-17
1.20595e-19
-1.04609e-17
1.34992e-19
-1.24884e-18
-2.20279e-20
1.36206e-17
-1.77827e-19
1.35147e-17
-1.59802e-19
-1.56358e-18
-1.38619e-17
1.21293e-19
-1.05822e-17
1.35773e-19
-1.26333e-18
-2.21567e-20
1.37785e-17
-1.78858e-19
1.36714e-17
-1.60729e-19
-1.58171e-18
-1.40227e-17
1.21992e-19
-1.07042e-17
1.36555e-19
-1.27789e-18
-2.22841e-20
1.39373e-17
-1.79888e-19
1.3829e-17
-1.61654e-19
-1.59995e-18
-1.41843e-17
1.22691e-19
-1.08269e-17
1.37336e-19
-1.29254e-18
-2.24113e-20
1.40971e-17
-1.80917e-19
1.39875e-17
-1.62579e-19
-1.61828e-18
-1.43469e-17
1.2339e-19
-1.09503e-17
1.38122e-19
-1.30727e-18
-2.25379e-20
1.42578e-17
-1.81948e-19
1.41469e-17
-1.63505e-19
-1.63673e-18
-1.45104e-17
1.24088e-19
-1.10744e-17
1.38902e-19
-1.32208e-18
-2.26657e-20
1.44193e-17
-1.82978e-19
1.43072e-17
-1.64431e-19
-1.65527e-18
-1.46748e-17
1.24788e-19
-1.11992e-17
1.39685e-19
-1.33698e-18
-2.27931e-20
1.45818e-17
-1.84008e-19
1.44684e-17
-1.65357e-19
-1.67392e-18
-1.48402e-17
1.25486e-19
-1.13247e-17
1.40467e-19
-1.35196e-18
-2.29218e-20
1.47452e-17
-1.8504e-19
1.46306e-17
-1.66284e-19
-1.69268e-18
-1.50065e-17
1.26186e-19
-1.14509e-17
1.4125e-19
-1.36702e-18
-2.30487e-20
1.49095e-17
-1.8607e-19
1.47936e-17
-1.6721e-19
-1.71154e-18
-1.51737e-17
1.26885e-19
-1.15777e-17
1.42032e-19
-1.38217e-18
-2.31772e-20
1.50747e-17
-1.87102e-19
1.49575e-17
-1.68137e-19
-1.73051e-18
-1.53418e-17
1.27584e-19
-1.17053e-17
1.42815e-19
-1.3974e-18
-2.33047e-20
1.52408e-17
-1.88133e-19
1.51223e-17
-1.69063e-19
-1.74958e-18
-1.55109e-17
1.28283e-19
-1.18336e-17
1.43597e-19
-1.41272e-18
-2.34329e-20
1.54078e-17
-1.89164e-19
1.52881e-17
-1.6999e-19
-1.76875e-18
-1.56809e-17
1.28983e-19
-1.19626e-17
1.44381e-19
-1.42811e-18
-2.35597e-20
1.55758e-17
-1.90194e-19
1.54547e-17
-1.70916e-19
-1.78803e-18
-1.58518e-17
1.29681e-19
-1.20923e-17
1.45163e-19
-1.44359e-18
-2.36879e-20
1.57446e-17
-1.91226e-19
1.56222e-17
-1.71842e-19
-1.80741e-18
-1.60236e-17
1.30381e-19
-1.22226e-17
1.45945e-19
-1.45916e-18
-2.38154e-20
1.59144e-17
-1.92257e-19
1.57907e-17
-1.72769e-19
-1.8269e-18
-1.61964e-17
1.31079e-19
-1.23537e-17
1.46728e-19
-1.47481e-18
-2.39436e-20
1.60851e-17
-1.93288e-19
1.596e-17
-1.73696e-19
-1.84649e-18
-1.63701e-17
1.31779e-19
-1.24855e-17
1.47511e-19
-1.49054e-18
-2.40709e-20
1.62567e-17
-1.94319e-19
1.61303e-17
-1.74622e-19
-1.86619e-18
-1.65447e-17
1.32478e-19
-1.2618e-17
1.48293e-19
-1.50636e-18
-2.4199e-20
1.64291e-17
-1.9535e-19
1.63014e-17
-1.75549e-19
-1.88599e-18
-1.67203e-17
1.33177e-19
-1.27512e-17
1.49076e-19
-1.52225e-18
-2.43266e-20
1.66025e-17
-1.96381e-19
1.64735e-17
-1.76475e-19
-1.9059e-18
-1.68967e-17
1.33876e-19
-1.2885e-17
1.49858e-19
-1.53824e-18
-2.44546e-20
1.67769e-17
-1.97412e-19
1.66464e-17
-1.77401e-19
-1.92591e-18
-1.70741e-17
1.34575e-19
-1.30196e-17
1.50641e-19
-1.5543e-18
-2.45812e-20
1.69521e-17
-1.98441e-19
1.68203e-17
-1.78327e-19
-1.94602e-18
-1.72525e-17
1.35274e-19
-1.31549e-17
1.51423e-19
-1.57045e-18
-2.47094e-20
1.71282e-17
-1.99472e-19
1.69951e-17
-1.79253e-19
-1.96624e-18
-1.74317e-17
1.35973e-19
-1.32909e-17
1.52206e-19
-1.58668e-18
-2.48369e-20
1.73053e-17
-2.00503e-19
1.71707e-17
-1.80179e-19
-1.98656e-18
-1.76119e-17
1.36672e-19
-1.34275e-17
1.52988e-19
-1.603e-18
-2.4965e-20
1.74832e-17
-2.01534e-19
1.73473e-17
-1.81106e-19
-2.00699e-18
-1.7793e-17
1.37371e-19
-1.35649e-17
1.53771e-19
-1.6194e-18
-2.50924e-20
1.76621e-17
-2.02565e-19
1.75248e-17
-1.82032e-19
-2.02752e-18
-1.7975e-17
1.3807e-19
-1.3703e-17
1.54553e-19
-1.63588e-18
-2.52204e-20
1.78418e-17
-2.03597e-19
1.77031e-17
-1.82959e-19
-2.04816e-18
-1.8158e-17
1.3877e-19
-1.38417e-17
1.55336e-19
-1.65245e-18
-2.5348e-20
1.80225e-17
-2.04627e-19
1.78824e-17
-1.83886e-19
-2.0689e-18
-1.83419e-17
1.39468e-19
-1.39812e-17
1.56118e-19
-1.6691e-18
-2.54761e-20
1.82041e-17
-2.05659e-19
1.80626e-17
-1.84812e-19
-2.08975e-18
-1.85267e-17
1.40168e-19
-1.41214e-17
1.56901e-19
-1.68583e-18
-2.5603e-20
1.83866e-17
-2.06688e-19
1.82437e-17
-1.85738e-19
-2.1107e-18
-1.87124e-17
1.40867e-19
-1.42622e-17
1.57683e-19
-1.70265e-18
-2.57312e-20
1.857e-17
-2.0772e-19
1.84257e-17
-1.86665e-19
-2.13176e-18
-1.88991e-17
1.41566e-19
-1.44038e-17
1.58466e-19
-1.71955e-18
-2.58588e-20
1.87544e-17
-2.08751e-19
1.86086e-17
-1.87591e-19
-2.15292e-18
-1.90867e-17
1.42265e-19
-1.45461e-17
1.59248e-19
-1.73654e-18
-2.5987e-20
1.89396e-17
-2.09782e-19
1.87924e-17
-1.88518e-19
-2.17418e-18
-1.92752e-17
1.42964e-19
-1.4689e-17
1.60032e-19
-1.7536e-18
-2.6114e-20
1.91258e-17
-2.10812e-19
1.89771e-17
-1.89444e-19
-2.19555e-18
-1.94647e-17
1.43663e-19
-1.48327e-17
1.60814e-19
-1.77075e-18
-2.62425e-20
1.93128e-17
-2.11844e-19
1.91627e-17
-1.90371e-19
-2.21702e-18
-1.9655e-17
1.44362e-19
-1.49771e-17
1.61596e-19
-1.78799e-18
-2.63699e-20
1.95008e-17
-2.12875e-19
1.93492e-17
-1.91297e-19
-2.2386e-18
-1.98463e-17
1.45061e-19
-1.51221e-17
1.62378e-19
-1.80531e-18
-2.64979e-20
1.96896e-17
-2.13905e-19
1.95366e-17
-1.92223e-19
-2.26028e-18
-2.00385e-17
1.4576e-19
-1.52679e-17
1.63162e-19
-1.82271e-18
-2.66239e-20
1.98794e-17
-2.14934e-19
1.97249e-17
-1.93148e-19
-2.28207e-18
-2.02317e-17
1.46459e-19
-1.54144e-17
1.63943e-19
-1.84019e-18
-2.67523e-20
2.00701e-17
-2.15965e-19
1.99141e-17
-1.94074e-19
-2.30396e-18
-2.04258e-17
1.47158e-19
-1.55615e-17
1.64726e-19
-1.85776e-18
-2.68797e-20
2.02617e-17
-2.16996e-19
2.01042e-17
-1.95e-19
-2.32596e-18
-2.06208e-17