/*--------------------------------*- C++ -*----------------------------------*\
| =========                 |                                                 |
| \\      /  F ield         | OpenFOAM: The Open Source CFD Toolbox           |
|  \\    /   O peration     | Version:  2206                                  |
|   \\  /    A nd           | Website:  www.openfoam.com                      |
|    \\/     M anipulation  |                                                 |
\*---------------------------------------------------------------------------*/
FoamFile
{
    version     2.0;
    format      ascii;
    arch        "LSB;label=32;scalar=64";
    class       volVectorField;
    location    "2";
    object      U;
}
// * * * * * * * * * * * * * * * * * * * * * * * * * * * * * * * * * * * * * //

dimensions      [0 1 -1 0 0 0 0];

internalField   nonuniform List<vector> 
36000
(
(-3.30268e-08 5.08635e-06 1.98635e-09)
(-1.53682e-08 1.13377e-05 1.31518e-08)
(1.82288e-08 1.77642e-05 2.57775e-09)
(1.93232e-08 2.45076e-05 -1.19824e-08)
(-1.20096e-08 3.17808e-05 -1.70816e-08)
(-3.66673e-08 3.99165e-05 -1.05309e-08)
(-7.07938e-08 1.35741e-05 1.85659e-09)
(-1.70476e-08 3.00685e-05 1.48587e-08)
(7.41301e-08 4.65714e-05 -1.44468e-09)
(7.30617e-08 6.30815e-05 -1.91394e-08)
(-2.03999e-08 7.9588e-05 -2.30002e-08)
(-9.3862e-08 9.60624e-05 -1.41657e-08)
(-1.21533e-07 2.21082e-05 3.77927e-09)
(-2.44849e-08 4.89626e-05 1.88451e-08)
(1.3788e-07 7.58166e-05 3.74754e-09)
(1.35063e-07 0.000102669 -1.60864e-08)
(-3.31644e-08 0.00012952 -2.37148e-08)
(-1.65409e-07 0.000156366 -1.23264e-08)
(-1.81336e-07 3.07474e-05 4.927e-09)
(-2.87786e-08 6.80951e-05 2.10842e-08)
(2.21507e-07 0.000105443 5.71569e-09)
(2.1884e-07 0.000142793 -1.63938e-08)
(-3.68119e-08 0.000180143 -2.63879e-08)
(-2.4211e-07 0.000217493 -1.19923e-08)
(-2.46025e-07 3.94262e-05 5.43291e-09)
(-3.14574e-08 8.73154e-05 2.22299e-08)
(3.15801e-07 0.000135206 6.23753e-09)
(3.13101e-07 0.000183098 -1.73189e-08)
(-3.9562e-08 0.000230992 -2.83224e-08)
(-3.26464e-07 0.000278887 -1.23606e-08)
(-3.13582e-07 4.81223e-05 5.60384e-09)
(-3.72547e-08 0.000106574 2.26438e-08)
(4.0833e-07 0.000165027 6.38475e-09)
(4.05166e-07 0.000223483 -1.7721e-08)
(-4.67563e-08 0.00028194 -2.90748e-08)
(-4.15656e-07 0.0003404 -1.25561e-08)
(-3.81461e-07 5.68276e-05 5.64417e-09)
(-4.49196e-08 0.000125853 2.27529e-08)
(4.97648e-07 0.00019488 6.40823e-09)
(4.93872e-07 0.00026391 -1.78399e-08)
(-5.62616e-08 0.000332942 -2.92671e-08)
(-5.05475e-07 0.000401977 -1.26191e-08)
(-4.48488e-07 6.55383e-05 5.64197e-09)
(-5.29406e-08 0.000145144 2.27471e-08)
(5.84937e-07 0.000224752 6.3941e-09)
(5.80503e-07 0.000304362 -1.78585e-08)
(-6.62457e-08 0.000383976 -2.92832e-08)
(-5.94233e-07 0.000463592 -1.26282e-08)
(-5.14588e-07 7.42525e-05 5.62982e-09)
(-6.09822e-08 0.000164443 2.27271e-08)
(6.70735e-07 0.000254635 6.37081e-09)
(6.65607e-07 0.000344831 -1.786e-08)
(-7.63119e-08 0.00043503 -2.9254e-08)
(-6.81831e-07 0.000525232 -1.26336e-08)
(-5.79944e-07 8.29691e-05 5.62141e-09)
(-6.89269e-08 0.000183747 2.2701e-08)
(7.55558e-07 0.000284527 6.36023e-09)
(7.49738e-07 0.00038531 -1.78461e-08)
(-8.62981e-08 0.000486098 -2.92295e-08)
(-7.6847e-07 0.000586889 -1.26235e-08)
(-6.44789e-07 9.16874e-05 5.61904e-09)
(-7.67799e-08 0.000203055 2.26938e-08)
(8.3979e-07 0.000314424 6.35813e-09)
(8.33293e-07 0.000425798 -1.78374e-08)
(-9.61315e-08 0.000537177 -2.92147e-08)
(-8.54406e-07 0.000648559 -1.26178e-08)
(-7.09281e-07 0.000100407 5.61748e-09)
(-8.45518e-08 0.000222365 2.26864e-08)
(9.2364e-07 0.000344326 6.35789e-09)
(9.16477e-07 0.000466292 -1.78321e-08)
(-1.05853e-07 0.000588263 -2.92116e-08)
(-9.39861e-07 0.000710237 -1.26128e-08)
(-7.73503e-07 0.000109127 5.61567e-09)
(-9.22498e-08 0.000241678 2.26862e-08)
(1.00721e-06 0.000374232 6.35465e-09)
(9.99387e-07 0.00050679 -1.78324e-08)
(-1.15494e-07 0.000639354 -2.92051e-08)
(-1.02496e-06 0.000771922 -1.26148e-08)
(-8.37515e-07 0.000117849 5.61335e-09)
(-9.99159e-08 0.000260992 2.26748e-08)
(1.09051e-06 0.000404139 6.35292e-09)
(1.08204e-06 0.000547292 -1.78245e-08)
(-1.2509e-07 0.00069045 -2.91972e-08)
(-1.10978e-06 0.000833612 -1.26083e-08)
(-9.01407e-07 0.000126571 5.61036e-09)
(-1.07667e-07 0.000280308 2.26684e-08)
(1.17346e-06 0.000434049 6.34541e-09)
(1.16435e-06 0.000587796 -1.78273e-08)
(-1.34746e-07 0.000741549 -2.91915e-08)
(-1.19441e-06 0.000895307 -1.26109e-08)
(-9.6501e-07 0.000135293 5.61241e-09)
(-1.15129e-07 0.000299625 2.26716e-08)
(1.25654e-06 0.000463961 6.34546e-09)
(1.24678e-06 0.000628303 -1.78098e-08)
(-1.44138e-07 0.000792651 -2.91601e-08)
(-1.27873e-06 0.000957005 -1.26045e-08)
(-1.02857e-06 0.000144016 5.60303e-09)
(-1.22727e-07 0.000318942 2.26644e-08)
(1.33928e-06 0.000493874 6.34411e-09)
(1.32888e-06 0.000668811 -1.78282e-08)
(-1.5366e-07 0.000843756 -2.9189e-08)
(-1.36296e-06 0.00101871 -1.26165e-08)
(-1.09213e-06 0.000152739 5.60594e-09)
(-1.30448e-07 0.000338261 2.2668e-08)
(1.42177e-06 0.000523788 6.3472e-09)
(1.41072e-06 0.000709321 -1.7813e-08)
(-1.63287e-07 0.000894862 -2.9167e-08)
(-1.44715e-06 0.00108041 -1.26084e-08)
(-1.15549e-06 0.000161462 5.60532e-09)
(-1.37927e-07 0.00035758 2.2667e-08)
(1.50444e-06 0.000553702 6.34304e-09)
(1.49275e-06 0.000749832 -1.78173e-08)
(-1.72682e-07 0.00094597 -2.91673e-08)
(-1.53114e-06 0.00114211 -1.26119e-08)
(-1.21884e-06 0.000170186 5.60418e-09)
(-1.45488e-07 0.000376899 2.26606e-08)
(1.58693e-06 0.000583618 6.34129e-09)
(1.57459e-06 0.000790344 -1.78145e-08)
(-1.82151e-07 0.000997079 -2.91645e-08)
(-1.61508e-06 0.00120382 -1.2609e-08)
(-1.28214e-06 0.000178909 5.60416e-09)
(-1.53053e-07 0.000396219 2.26626e-08)
(1.66933e-06 0.000613534 6.341e-09)
(1.65636e-06 0.000830857 -1.78156e-08)
(-1.91623e-07 0.00104819 -2.91638e-08)
(-1.69896e-06 0.00126553 -1.26102e-08)
(-1.3454e-06 0.000187633 5.60486e-09)
(-1.60597e-07 0.000415539 2.26623e-08)
(1.75172e-06 0.000643451 6.34233e-09)
(1.7381e-06 0.000871371 -1.78162e-08)
(-2.01075e-07 0.0010993 -2.91685e-08)
(-1.78279e-06 0.00132724 -1.26092e-08)
(-1.40865e-06 0.000196357 5.60598e-09)
(-1.68145e-07 0.00043486 2.26648e-08)
(1.83408e-06 0.000673369 6.34398e-09)
(1.81982e-06 0.000911886 -1.78164e-08)
(-2.10521e-07 0.00115041 -2.91702e-08)
(-1.8666e-06 0.00138895 -1.26089e-08)
(-1.47187e-06 0.000205081 5.60576e-09)
(-1.75685e-07 0.000454181 2.26636e-08)
(1.91642e-06 0.000703287 6.34333e-09)
(1.90153e-06 0.000952401 -1.78168e-08)
(-2.19958e-07 0.00120153 -2.91711e-08)
(-1.95038e-06 0.00145066 -1.26089e-08)
(-1.53507e-06 0.000213806 5.60511e-09)
(-1.83228e-07 0.000473502 2.26647e-08)
(1.99872e-06 0.000733205 6.34186e-09)
(1.98318e-06 0.000992917 -1.78184e-08)
(-2.29403e-07 0.00125264 -2.91696e-08)
(-2.03412e-06 0.00151237 -1.26111e-08)
(-1.59824e-06 0.00022253 5.60503e-09)
(-1.90771e-07 0.000492823 2.26637e-08)
(2.08097e-06 0.000763123 6.34193e-09)
(2.06479e-06 0.00103343 -1.78181e-08)
(-2.38853e-07 0.00130375 -2.91704e-08)
(-2.11784e-06 0.00157408 -1.26106e-08)
(-1.6614e-06 0.000231255 5.6058e-09)
(-1.98311e-07 0.000512145 2.26654e-08)
(2.16321e-06 0.000793042 6.34314e-09)
(2.14639e-06 0.00107395 -1.78182e-08)
(-2.48295e-07 0.00135487 -2.91716e-08)
(-2.20154e-06 0.0016358 -1.26104e-08)
(-1.72456e-06 0.000239979 5.60629e-09)
(-2.05854e-07 0.000531467 2.26659e-08)
(2.24543e-06 0.000822962 6.34399e-09)
(2.22798e-06 0.00111447 -1.7819e-08)
(-2.57735e-07 0.00140598 -2.91745e-08)
(-2.28522e-06 0.00169751 -1.26103e-08)
(-1.7877e-06 0.000248704 5.6067e-09)
(-2.13391e-07 0.000550789 2.26678e-08)
(2.32765e-06 0.000852881 6.34389e-09)
(2.30956e-06 0.00115498 -1.78204e-08)
(-2.67172e-07 0.0014571 -2.91755e-08)
(-2.36889e-06 0.00175922 -1.26114e-08)
(-1.85083e-06 0.000257428 5.60689e-09)
(-2.20923e-07 0.000570111 2.26674e-08)
(2.40986e-06 0.000882801 6.34463e-09)
(2.39113e-06 0.0011955 -1.78202e-08)
(-2.76605e-07 0.00150822 -2.9177e-08)
(-2.45255e-06 0.00182094 -1.26107e-08)
(-1.91395e-06 0.000266153 5.60691e-09)
(-2.28464e-07 0.000589433 2.26673e-08)
(2.49205e-06 0.00091272 6.34471e-09)
(2.47267e-06 0.00123602 -1.78196e-08)
(-2.86042e-07 0.00155933 -2.91761e-08)
(-2.53619e-06 0.00188265 -1.26104e-08)
(-1.97706e-06 0.000274878 5.60614e-09)
(-2.35996e-07 0.000608755 2.26653e-08)
(2.57421e-06 0.00094264 6.34322e-09)
(2.55421e-06 0.00127654 -1.7819e-08)
(-2.95469e-07 0.00161045 -2.91739e-08)
(-2.61981e-06 0.00194437 -1.26103e-08)
(-2.04014e-06 0.000283603 5.60519e-09)
(-2.43527e-07 0.000628077 2.26651e-08)
(2.65635e-06 0.00097256 6.34208e-09)
(2.6357e-06 0.00131706 -1.7819e-08)
(-3.04899e-07 0.00166157 -2.91712e-08)
(-2.7034e-06 0.00200609 -1.26114e-08)
(-2.10321e-06 0.000292328 5.60474e-09)
(-2.5106e-07 0.0006474 2.26635e-08)
(2.73846e-06 0.00100248 6.34147e-09)
(2.71717e-06 0.00135757 -1.78183e-08)
(-3.14334e-07 0.00171268 -2.917e-08)
(-2.78698e-06 0.0020678 -1.26108e-08)
(-2.16626e-06 0.000301053 5.60495e-09)
(-2.58587e-07 0.000666722 2.26639e-08)
(2.82056e-06 0.0010324 6.34177e-09)
(2.79863e-06 0.00139809 -1.7818e-08)
(-3.23759e-07 0.0017638 -2.91698e-08)
(-2.87053e-06 0.00212952 -1.26106e-08)
(-2.22931e-06 0.000309778 5.60514e-09)
(-2.66116e-07 0.000686045 2.26638e-08)
(2.90265e-06 0.00106232 6.34223e-09)
(2.88009e-06 0.00143861 -1.78182e-08)
(-3.33184e-07 0.00181492 -2.91711e-08)
(-2.95408e-06 0.00219123 -1.26104e-08)
(-2.29236e-06 0.000318503 5.60543e-09)
(-2.73644e-07 0.000705368 2.26651e-08)
(2.98474e-06 0.00109224 6.3422e-09)
(2.96154e-06 0.00147913 -1.78191e-08)
(-3.42609e-07 0.00186604 -2.91718e-08)
(-3.03762e-06 0.00225295 -1.2611e-08)
(-2.3554e-06 0.000327228 5.60572e-09)
(-2.81168e-07 0.00072469 2.26653e-08)
(3.06683e-06 0.00112216 6.34282e-09)
(3.04299e-06 0.00151965 -1.78194e-08)
(-3.52031e-07 0.00191715 -2.91735e-08)
(-3.12116e-06 0.00231467 -1.26109e-08)
(-2.41844e-06 0.000335953 5.60604e-09)
(-2.88695e-07 0.000744013 2.2666e-08)
(3.14892e-06 0.00115208 6.34337e-09)
(3.12444e-06 0.00156017 -1.78193e-08)
(-3.61454e-07 0.00196827 -2.91739e-08)
(-3.2047e-06 0.00237639 -1.26107e-08)
(-2.48148e-06 0.000344678 5.60586e-09)
(-2.96222e-07 0.000763336 2.26654e-08)
(3.23099e-06 0.001182 6.34305e-09)
(3.20588e-06 0.00160069 -1.78193e-08)
(-3.70875e-07 0.00201939 -2.91739e-08)
(-3.28823e-06 0.0024381 -1.26107e-08)
(-2.54451e-06 0.000353403 5.60563e-09)
(-3.03748e-07 0.000782659 2.26659e-08)
(3.31306e-06 0.00121193 6.34241e-09)
(3.28731e-06 0.00164121 -1.78198e-08)
(-3.80298e-07 0.00207051 -2.91729e-08)
(-3.37176e-06 0.00249982 -1.26115e-08)
(-2.60754e-06 0.000362128 5.6056e-09)
(-3.11274e-07 0.000801982 2.26654e-08)
(3.39512e-06 0.00124185 6.34245e-09)
(3.36872e-06 0.00168173 -1.78198e-08)
(-3.89723e-07 0.00212163 -2.91736e-08)
(-3.45527e-06 0.00256154 -1.26113e-08)
(-2.67056e-06 0.000370853 5.60601e-09)
(-3.18802e-07 0.000821305 2.26663e-08)
(3.47717e-06 0.00127177 6.34312e-09)
(3.45014e-06 0.00172225 -1.78198e-08)
(-3.99147e-07 0.00217275 -2.91742e-08)
(-3.53879e-06 0.00262326 -1.26111e-08)
(-2.73359e-06 0.000379578 5.60619e-09)
(-3.2633e-07 0.000840628 2.26663e-08)
(3.55922e-06 0.00130169 6.34332e-09)
(3.53156e-06 0.00176277 -1.78203e-08)
(-4.0857e-07 0.00222386 -2.91757e-08)
(-3.6223e-06 0.00268497 -1.26111e-08)
(-2.79661e-06 0.000388303 5.60632e-09)
(-3.33852e-07 0.000859951 2.26672e-08)
(3.64128e-06 0.00133161 6.34343e-09)
(3.61297e-06 0.00180329 -1.78206e-08)
(-4.17988e-07 0.00227498 -2.91756e-08)
(-3.70581e-06 0.00274669 -1.26115e-08)
(-2.85962e-06 0.000397029 5.60609e-09)
(-3.41374e-07 0.000879274 2.26657e-08)
(3.72333e-06 0.00136153 6.3432e-09)
(3.69439e-06 0.00184381 -1.782e-08)
(-4.27407e-07 0.0023261 -2.91754e-08)
(-3.78931e-06 0.00280841 -1.26107e-08)
(-2.92264e-06 0.000405754 5.60571e-09)
(-3.4891e-07 0.000898598 2.26648e-08)
(3.80536e-06 0.00139145 6.34241e-09)
(3.77578e-06 0.00188433 -1.78198e-08)
(-4.36835e-07 0.00237722 -2.9174e-08)
(-3.87281e-06 0.00287013 -1.26108e-08)
(-2.98563e-06 0.000414479 5.60551e-09)
(-3.56418e-07 0.000917921 2.26641e-08)
(3.8874e-06 0.00142137 6.34143e-09)
(3.85718e-06 0.00192485 -1.78181e-08)
(-4.46239e-07 0.00242834 -2.91699e-08)
(-3.95628e-06 0.00293185 -1.26102e-08)
(-3.04861e-06 0.000423204 5.60443e-09)
(-3.63937e-07 0.000937244 2.26639e-08)
(3.96941e-06 0.0014513 6.34182e-09)
(3.93855e-06 0.00196537 -1.78192e-08)
(-4.55654e-07 0.00247946 -2.91716e-08)
(-4.03975e-06 0.00299357 -1.26116e-08)
(-3.1116e-06 0.000431929 5.60446e-09)
(-3.7147e-07 0.000956567 2.26634e-08)
(4.0514e-06 0.00148122 6.34145e-09)
(4.0199e-06 0.00200589 -1.78177e-08)
(-4.65082e-07 0.00253058 -2.91689e-08)
(-4.12321e-06 0.00305528 -1.26106e-08)
(-3.17457e-06 0.000440655 5.60444e-09)
(-3.78977e-07 0.000975891 2.26633e-08)
(4.13341e-06 0.00151114 6.34113e-09)
(4.10128e-06 0.00204641 -1.78178e-08)
(-4.74485e-07 0.0025817 -2.91686e-08)
(-4.20666e-06 0.003117 -1.26108e-08)
(-3.23754e-06 0.00044938 5.60432e-09)
(-3.86494e-07 0.000995214 2.26624e-08)
(4.2154e-06 0.00154106 6.3409e-09)
(4.18263e-06 0.00208693 -1.78177e-08)
(-4.83897e-07 0.00263282 -2.91688e-08)
(-4.2901e-06 0.00317872 -1.26104e-08)
(-3.30051e-06 0.000458105 5.60446e-09)
(-3.94012e-07 0.00101454 2.26631e-08)
(4.29739e-06 0.00157098 6.34104e-09)
(4.26398e-06 0.00212745 -1.78179e-08)
(-4.9331e-07 0.00268394 -2.91687e-08)
(-4.37355e-06 0.00324044 -1.26107e-08)
(-3.36348e-06 0.000466831 5.60461e-09)
(-4.01527e-07 0.00103386 2.26631e-08)
(4.37939e-06 0.0016009 6.34128e-09)
(4.34534e-06 0.00216797 -1.78182e-08)
(-5.0272e-07 0.00273506 -2.91699e-08)
(-4.45699e-06 0.00330216 -1.26106e-08)
(-3.42645e-06 0.000475556 5.60486e-09)
(-4.09043e-07 0.00105318 2.26637e-08)
(4.46138e-06 0.00163083 6.34168e-09)
(4.4267e-06 0.00220849 -1.78182e-08)
(-5.12131e-07 0.00278618 -2.91703e-08)
(-4.54043e-06 0.00336388 -1.26105e-08)
(-3.48943e-06 0.000484281 5.60479e-09)
(-4.1656e-07 0.00107251 2.26633e-08)
(4.54337e-06 0.00166075 6.34152e-09)
(4.50805e-06 0.00224901 -1.78183e-08)
(-5.21541e-07 0.0028373 -2.91705e-08)
(-4.62388e-06 0.0034256 -1.26105e-08)
(-3.55239e-06 0.000493006 5.60468e-09)
(-4.24077e-07 0.00109183 2.26636e-08)
(4.62536e-06 0.00169067 6.34124e-09)
(4.58941e-06 0.00228953 -1.78185e-08)
(-5.30952e-07 0.00288842 -2.91699e-08)
(-4.70732e-06 0.00348732 -1.26109e-08)
(-3.61536e-06 0.000501732 5.60464e-09)
(-4.31593e-07 0.00111115 2.26633e-08)
(4.70735e-06 0.00172059 6.34121e-09)
(4.67075e-06 0.00233005 -1.78185e-08)
(-5.40364e-07 0.00293954 -2.91702e-08)
(-4.79075e-06 0.00354904 -1.26108e-08)
(-3.67832e-06 0.000510457 5.60481e-09)
(-4.39111e-07 0.00113048 2.26637e-08)
(4.78933e-06 0.00175051 6.34151e-09)
(4.7521e-06 0.00237057 -1.78184e-08)
(-5.49777e-07 0.00299066 -2.91704e-08)
(-4.87419e-06 0.00361076 -1.26108e-08)
(-3.74129e-06 0.000519182 5.60491e-09)
(-4.46629e-07 0.0011498 2.26638e-08)
(4.87132e-06 0.00178044 6.34167e-09)
(4.83344e-06 0.00241109 -1.78187e-08)
(-5.59188e-07 0.00304177 -2.91711e-08)
(-4.95763e-06 0.00367248 -1.26108e-08)
(-3.80426e-06 0.000527908 5.60503e-09)
(-4.54145e-07 0.00116912 2.26643e-08)
(4.9533e-06 0.00181036 6.3417e-09)
(4.91479e-06 0.00245161 -1.78189e-08)
(-5.686e-07 0.00309289 -2.91713e-08)
(-5.04107e-06 0.0037342 -1.2611e-08)
(-3.86722e-06 0.000536633 5.60508e-09)
(-4.61662e-07 0.00118845 2.26642e-08)
(5.03529e-06 0.00184028 6.34184e-09)
(4.99614e-06 0.00249213 -1.7819e-08)
(-5.78011e-07 0.00314401 -2.91718e-08)
(-5.1245e-06 0.00379591 -1.26109e-08)
(-3.93019e-06 0.000545359 5.6051e-09)
(-4.69179e-07 0.00120777 2.26642e-08)
(5.11727e-06 0.0018702 6.34192e-09)
(5.07749e-06 0.00253265 -1.78188e-08)
(-5.87422e-07 0.00319513 -2.91715e-08)
(-5.20794e-06 0.00385763 -1.26108e-08)
(-3.99315e-06 0.000554084 5.60489e-09)
(-4.76696e-07 0.0012271 2.26637e-08)
(5.19925e-06 0.00190012 6.34155e-09)
(5.15883e-06 0.00257317 -1.78187e-08)
(-5.96832e-07 0.00324625 -2.91711e-08)
(-5.29137e-06 0.00391935 -1.26107e-08)
(-4.05611e-06 0.000562809 5.60468e-09)
(-4.84212e-07 0.00124642 2.26636e-08)
(5.28122e-06 0.00193004 6.34126e-09)
(5.24017e-06 0.0026137 -1.78185e-08)
(-6.06243e-07 0.00329737 -2.91701e-08)
(-5.3748e-06 0.00398107 -1.2611e-08)
(-4.11906e-06 0.000571535 5.60453e-09)
(-4.91728e-07 0.00126574 2.26632e-08)
(5.36319e-06 0.00195997 6.34106e-09)
(5.3215e-06 0.00265422 -1.78184e-08)
(-6.15654e-07 0.00334849 -2.91699e-08)
(-5.45822e-06 0.00404279 -1.26108e-08)
(-4.18202e-06 0.00058026 5.6046e-09)
(-4.99244e-07 0.00128507 2.26633e-08)
(5.44516e-06 0.00198989 6.34119e-09)
(5.40283e-06 0.00269474 -1.78183e-08)
(-6.25064e-07 0.00339961 -2.91698e-08)
(-5.54164e-06 0.00410451 -1.26107e-08)
(-4.24497e-06 0.000588985 5.60465e-09)
(-5.0676e-07 0.00130439 2.26633e-08)
(5.52713e-06 0.00201981 6.34127e-09)
(5.48416e-06 0.00273526 -1.78184e-08)
(-6.34474e-07 0.00345073 -2.91703e-08)
(-5.62506e-06 0.00416623 -1.26107e-08)
(-4.30792e-06 0.000597711 5.60474e-09)
(-5.14276e-07 0.00132371 2.26636e-08)
(5.6091e-06 0.00204973 6.34132e-09)
(5.56549e-06 0.00277578 -1.78186e-08)
(-6.43884e-07 0.00350186 -2.91704e-08)
(-5.70848e-06 0.00422795 -1.26109e-08)
(-4.37088e-06 0.000606436 5.60479e-09)
(-5.21791e-07 0.00134304 2.26637e-08)
(5.69106e-06 0.00207965 6.34142e-09)
(5.64682e-06 0.0028163 -1.78187e-08)
(-6.53293e-07 0.00355298 -2.91709e-08)
(-5.7919e-06 0.00428967 -1.26109e-08)
(-4.43383e-06 0.000615162 5.60488e-09)
(-5.29306e-07 0.00136236 2.26638e-08)
(5.77303e-06 0.00210958 6.34158e-09)
(5.72815e-06 0.00285682 -1.78187e-08)
(-6.62703e-07 0.0036041 -2.91709e-08)
(-5.87532e-06 0.00435139 -1.26108e-08)
(-4.49678e-06 0.000623887 5.60481e-09)
(-5.36823e-07 0.00138168 2.26636e-08)
(5.855e-06 0.0021395 6.34145e-09)
(5.80948e-06 0.00289734 -1.78187e-08)
(-6.72112e-07 0.00365522 -2.91709e-08)
(-5.95874e-06 0.00441311 -1.26108e-08)
(-4.55974e-06 0.000632612 5.60477e-09)
(-5.44338e-07 0.00140101 2.26638e-08)
(5.93697e-06 0.00216942 6.34136e-09)
(5.89081e-06 0.00293786 -1.78187e-08)
(-6.81522e-07 0.00370634 -2.91705e-08)
(-6.04216e-06 0.00447483 -1.2611e-08)
(-4.62269e-06 0.000641338 5.60474e-09)
(-5.51854e-07 0.00142033 2.26636e-08)
(6.01893e-06 0.00219934 6.3413e-09)
(5.97214e-06 0.00297838 -1.78188e-08)
(-6.90932e-07 0.00375746 -2.91707e-08)
(-6.12558e-06 0.00453655 -1.26109e-08)
(-4.68564e-06 0.000650063 5.60485e-09)
(-5.5937e-07 0.00143965 2.26639e-08)
(6.10089e-06 0.00222927 6.34151e-09)
(6.05346e-06 0.0030189 -1.78187e-08)
(-7.00343e-07 0.00380858 -2.91709e-08)
(-6.20899e-06 0.00459827 -1.26109e-08)
(-4.74859e-06 0.000658789 5.60488e-09)
(-5.66887e-07 0.00145898 2.26638e-08)
(6.18285e-06 0.00225919 6.34149e-09)
(6.13479e-06 0.00305943 -1.7819e-08)
(-7.09753e-07 0.0038597 -2.91714e-08)
(-6.29241e-06 0.00465999 -1.26109e-08)
(-4.81154e-06 0.000667514 5.60498e-09)
(-5.74402e-07 0.0014783 2.26642e-08)
(6.26482e-06 0.00228911 6.34165e-09)
(6.21611e-06 0.00309995 -1.7819e-08)
(-7.19162e-07 0.00391082 -2.91713e-08)
(-6.37583e-06 0.00472171 -1.2611e-08)
(-4.87449e-06 0.00067624 5.60492e-09)
(-5.81917e-07 0.00149763 2.26638e-08)
(6.34678e-06 0.00231903 6.34151e-09)
(6.29744e-06 0.00314047 -1.78191e-08)
(-7.28572e-07 0.00396194 -2.91716e-08)
(-6.45924e-06 0.00478343 -1.26109e-08)
(-4.93744e-06 0.000684965 5.60487e-09)
(-5.89435e-07 0.00151695 2.26637e-08)
(6.42874e-06 0.00234895 6.34149e-09)
(6.37876e-06 0.00318099 -1.78189e-08)
(-7.37982e-07 0.00401306 -2.91712e-08)
(-6.54266e-06 0.00484515 -1.26108e-08)
(-5.00038e-06 0.00069369 5.60471e-09)
(-5.96949e-07 0.00153627 2.26632e-08)
(6.5107e-06 0.00237888 6.34108e-09)
(6.46009e-06 0.00322151 -1.78185e-08)
(-7.47389e-07 0.00406418 -2.91703e-08)
(-6.62607e-06 0.00490687 -1.26107e-08)
(-5.06333e-06 0.000702416 5.60449e-09)
(-6.04462e-07 0.0015556 2.26634e-08)
(6.59266e-06 0.0024088 6.34121e-09)
(6.5414e-06 0.00326203 -1.78184e-08)
(-7.56797e-07 0.0041153 -2.91698e-08)
(-6.70948e-06 0.00496859 -1.2611e-08)
(-5.12627e-06 0.000711141 5.60438e-09)
(-6.11978e-07 0.00157492 2.26629e-08)
(6.6746e-06 0.00243872 6.34091e-09)
(6.62271e-06 0.00330255 -1.78182e-08)
(-7.66207e-07 0.00416642 -2.91694e-08)
(-6.79288e-06 0.00503031 -1.26108e-08)
(-5.18921e-06 0.000719867 5.60443e-09)
(-6.1949e-07 0.00159424 2.2663e-08)
(6.75656e-06 0.00246864 6.34099e-09)
(6.70403e-06 0.00334307 -1.78181e-08)
(-7.75614e-07 0.00421754 -2.91692e-08)
(-6.87628e-06 0.00509203 -1.26107e-08)
(-5.25214e-06 0.000728592 5.6044e-09)
(-6.27004e-07 0.00161357 2.26628e-08)
(6.8385e-06 0.00249857 6.34088e-09)
(6.78534e-06 0.00338359 -1.78183e-08)
(-7.85021e-07 0.00426866 -2.91696e-08)
(-6.95968e-06 0.00515375 -1.26107e-08)
(-5.31508e-06 0.000737318 5.60451e-09)
(-6.34517e-07 0.00163289 2.26632e-08)
(6.92045e-06 0.00252849 6.34106e-09)
(6.86665e-06 0.00342412 -1.78183e-08)
(-7.94428e-07 0.00431978 -2.91695e-08)
(-7.04308e-06 0.00521547 -1.26108e-08)
(-5.37802e-06 0.000746043 5.60453e-09)
(-6.4203e-07 0.00165222 2.26631e-08)
(7.0024e-06 0.00255841 6.34104e-09)
(6.94797e-06 0.00346464 -1.78185e-08)
(-8.03835e-07 0.0043709 -2.91701e-08)
(-7.12648e-06 0.00527719 -1.26108e-08)
(-5.44096e-06 0.000754769 5.60462e-09)
(-6.49544e-07 0.00167154 2.26633e-08)
(7.08436e-06 0.00258833 6.34121e-09)
(7.02928e-06 0.00350516 -1.78184e-08)
(-8.13243e-07 0.00442202 -2.91702e-08)
(-7.20989e-06 0.00533891 -1.26108e-08)
(-5.5039e-06 0.000763494 5.60456e-09)
(-6.57059e-07 0.00169086 2.26631e-08)
(7.16631e-06 0.00261825 6.34105e-09)
(7.11059e-06 0.00354568 -1.78186e-08)
(-8.2265e-07 0.00447314 -2.91703e-08)
(-7.29329e-06 0.00540063 -1.26108e-08)
(-5.56684e-06 0.000772219 5.60457e-09)
(-6.64573e-07 0.00171019 2.26634e-08)
(7.24826e-06 0.00264818 6.34113e-09)
(7.19191e-06 0.0035862 -1.78184e-08)
(-8.32058e-07 0.00452426 -2.91698e-08)
(-7.37669e-06 0.00546235 -1.26109e-08)
(-5.62978e-06 0.000780945 5.60452e-09)
(-6.72086e-07 0.00172951 2.26631e-08)
(7.3302e-06 0.0026781 6.341e-09)
(7.27322e-06 0.00362672 -1.78185e-08)
(-8.41465e-07 0.00457538 -2.91701e-08)
(-7.46009e-06 0.00552407 -1.26109e-08)
(-5.69272e-06 0.00078967 5.60462e-09)
(-6.79601e-07 0.00174883 2.26634e-08)
(7.41215e-06 0.00270802 6.34118e-09)
(7.35453e-06 0.00366724 -1.78185e-08)
(-8.50874e-07 0.0046265 -2.91702e-08)
(-7.54349e-06 0.00558579 -1.26108e-08)
(-5.75566e-06 0.000798396 5.60462e-09)
(-6.87116e-07 0.00176816 2.26633e-08)
(7.4941e-06 0.00273794 6.3411e-09)
(7.43584e-06 0.00370776 -1.78188e-08)
(-8.60282e-07 0.00467762 -2.91707e-08)
(-7.62689e-06 0.00564751 -1.26109e-08)
(-5.8186e-06 0.000807121 5.60474e-09)
(-6.9463e-07 0.00178748 2.26637e-08)
(7.57605e-06 0.00276787 6.34134e-09)
(7.51715e-06 0.00374828 -1.78187e-08)
(-8.6969e-07 0.00472874 -2.91705e-08)
(-7.7103e-06 0.00570923 -1.26109e-08)
(-5.88154e-06 0.000815847 5.60468e-09)
(-7.02144e-07 0.00180681 2.26634e-08)
(7.658e-06 0.00279779 6.34114e-09)
(7.59846e-06 0.00378881 -1.78189e-08)
(-8.79098e-07 0.00477987 -2.9171e-08)
(-7.7937e-06 0.00577095 -1.26109e-08)
(-5.94448e-06 0.000824572 5.60469e-09)
(-7.0966e-07 0.00182613 2.26634e-08)
(7.73995e-06 0.00282771 6.3412e-09)
(7.67977e-06 0.00382933 -1.78188e-08)
(-8.88507e-07 0.00483099 -2.91707e-08)
(-7.8771e-06 0.00583267 -1.26108e-08)
(-6.00741e-06 0.000833298 5.60458e-09)
(-7.17173e-07 0.00184545 2.2663e-08)
(7.82189e-06 0.00285763 6.34089e-09)
(7.76108e-06 0.00386985 -1.78185e-08)
(-8.97913e-07 0.00488211 -2.91701e-08)
(-7.9605e-06 0.00589439 -1.26107e-08)
(-6.07035e-06 0.000842023 5.60448e-09)
(-7.24686e-07 0.00186478 2.26634e-08)
(7.90384e-06 0.00288755 6.3412e-09)
(7.84239e-06 0.00391037 -1.78183e-08)
(-9.0732e-07 0.00493323 -2.91696e-08)
(-8.0439e-06 0.00595611 -1.26109e-08)
(-6.13328e-06 0.000850749 5.60439e-09)
(-7.322e-07 0.0018841 2.26629e-08)
(7.98578e-06 0.00291748 6.34088e-09)
(7.92369e-06 0.00395089 -1.78183e-08)
(-9.16729e-07 0.00498435 -2.91696e-08)
(-8.12729e-06 0.00601783 -1.26108e-08)
(-6.19622e-06 0.000859474 5.60449e-09)
(-7.39713e-07 0.00190342 2.26632e-08)
(8.06772e-06 0.0029474 6.34107e-09)
(8.005e-06 0.00399141 -1.78182e-08)
(-9.26135e-07 0.00503547 -2.91695e-08)
(-8.21068e-06 0.00607955 -1.26108e-08)
(-6.25915e-06 0.0008682 5.60445e-09)
(-7.47227e-07 0.00192275 2.26629e-08)
(8.14966e-06 0.00297732 6.34083e-09)
(8.08631e-06 0.00403193 -1.78186e-08)
(-9.35542e-07 0.00508659 -2.91702e-08)
(-8.29408e-06 0.00614127 -1.26108e-08)
(-6.32209e-06 0.000876925 5.60464e-09)
(-7.54741e-07 0.00194207 2.26636e-08)
(8.23161e-06 0.00300724 6.34126e-09)
(8.16761e-06 0.00407245 -1.78184e-08)
(-9.44949e-07 0.00513771 -2.91699e-08)
(-8.37748e-06 0.00620299 -1.26109e-08)
(-6.38502e-06 0.000885651 5.60458e-09)
(-7.62254e-07 0.0019614 2.26632e-08)
(8.31355e-06 0.00303717 6.34098e-09)
(8.24892e-06 0.00411298 -1.78189e-08)
(-9.54357e-07 0.00518883 -2.91708e-08)
(-8.46087e-06 0.00626471 -1.26109e-08)
(-6.44796e-06 0.000894376 5.60468e-09)
(-7.6977e-07 0.00198072 2.26634e-08)
(8.39549e-06 0.00306709 6.34118e-09)
(8.33023e-06 0.0041535 -1.78188e-08)
(-9.63766e-07 0.00523995 -2.91707e-08)
(-8.54427e-06 0.00632644 -1.26109e-08)
(-6.5109e-06 0.000903101 5.60461e-09)
(-7.77285e-07 0.00200004 2.2663e-08)
(8.47744e-06 0.00309701 6.34084e-09)
(8.41153e-06 0.00419402 -1.78189e-08)
(-9.73173e-07 0.00529107 -2.91707e-08)
(-8.62767e-06 0.00638816 -1.26108e-08)
(-6.57383e-06 0.000911827 5.60468e-09)
(-7.84798e-07 0.00201937 2.26639e-08)
(8.55938e-06 0.00312693 6.34148e-09)
(8.49284e-06 0.00423454 -1.78185e-08)
(-9.82581e-07 0.00534219 -2.91702e-08)
(-8.71107e-06 0.00644988 -1.2611e-08)
(-6.63677e-06 0.000920552 5.60458e-09)
(-7.92313e-07 0.00203869 2.26633e-08)
(8.64132e-06 0.00315686 6.34098e-09)
(8.57414e-06 0.00427506 -1.7819e-08)
(-9.9199e-07 0.00539331 -2.91708e-08)
(-8.79446e-06 0.0065116 -1.2611e-08)
(-6.6997e-06 0.000929278 5.60478e-09)
(-7.99829e-07 0.00205801 2.26637e-08)
(8.72327e-06 0.00318678 6.34132e-09)
(8.65545e-06 0.00431558 -1.78189e-08)
(-1.0014e-06 0.00544443 -2.9171e-08)
(-8.87786e-06 0.00657332 -1.2611e-08)
(-6.76264e-06 0.000938003 5.60471e-09)
(-8.07345e-07 0.00207734 2.26632e-08)
(8.80521e-06 0.0032167 6.34083e-09)
(8.73676e-06 0.0043561 -1.78194e-08)
(-1.01081e-06 0.00549555 -2.91717e-08)
(-8.96126e-06 0.00663504 -1.2611e-08)
(-6.82558e-06 0.000946729 5.60483e-09)
(-8.1486e-07 0.00209666 2.26641e-08)
(8.88716e-06 0.00324662 6.34158e-09)
(8.81806e-06 0.00439662 -1.7819e-08)
(-1.02022e-06 0.00554667 -2.91712e-08)
(-9.04466e-06 0.00669676 -1.2611e-08)
(-6.88852e-06 0.000955454 5.60448e-09)
(-8.22376e-07 0.00211599 2.26623e-08)
(8.9691e-06 0.00327654 6.34042e-09)
(8.89937e-06 0.00443715 -1.78193e-08)
(-1.02963e-06 0.0055978 -2.91713e-08)
(-9.12806e-06 0.00675848 -1.26108e-08)
(-6.95146e-06 0.00096418 5.60427e-09)
(-8.29904e-07 0.00213531 2.2662e-08)
(9.05102e-06 0.00330647 6.33991e-09)
(8.98066e-06 0.00447767 -1.78196e-08)
(-1.03905e-06 0.00564892 -2.91709e-08)
(-9.21146e-06 0.0068202 -1.2611e-08)
(-7.01437e-06 0.000972905 5.60534e-09)
(-8.37389e-07 0.00215463 2.26639e-08)
(9.13299e-06 0.00333639 6.34146e-09)
(9.06199e-06 0.00451819 -1.78152e-08)
(-1.04843e-06 0.00570004 -2.91648e-08)
(-9.29483e-06 0.00688192 -1.26091e-08)
(-7.0773e-06 0.000981631 5.60345e-09)
(-8.44899e-07 0.00217396 2.2662e-08)
(9.21493e-06 0.00336631 6.34044e-09)
(9.14329e-06 0.00455871 -1.78206e-08)
(-1.05783e-06 0.00575116 -2.91729e-08)
(-9.37822e-06 0.00694364 -1.26122e-08)
(-7.14024e-06 0.000990356 5.60433e-09)
(-8.52438e-07 0.00219328 2.26631e-08)
(9.29683e-06 0.00339623 6.34144e-09)
(9.22456e-06 0.00459923 -1.78172e-08)
(-1.06726e-06 0.00580228 -2.91683e-08)
(-9.46162e-06 0.00700536 -1.26105e-08)
(-7.20316e-06 0.000999082 5.60437e-09)
(-8.59937e-07 0.0022126 2.26634e-08)
(9.37878e-06 0.00342616 6.3413e-09)
(9.30587e-06 0.00463975 -1.78175e-08)
(-1.07665e-06 0.0058534 -2.91682e-08)
(-9.545e-06 0.00706708 -1.26107e-08)
(-7.26608e-06 0.00100781 5.60409e-09)
(-8.67446e-07 0.00223193 2.2662e-08)
(9.46072e-06 0.00345608 6.34033e-09)
(9.38717e-06 0.00468027 -1.78179e-08)
(-1.08606e-06 0.00590452 -2.91684e-08)
(-9.62838e-06 0.0071288 -1.26106e-08)
(-7.32901e-06 0.00101653 5.60425e-09)
(-8.74956e-07 0.00225125 2.26629e-08)
(9.54265e-06 0.003486 6.34105e-09)
(9.46846e-06 0.0047208 -1.78174e-08)
(-1.09546e-06 0.00595564 -2.91679e-08)
(-9.71176e-06 0.00719052 -1.26106e-08)
(-7.39193e-06 0.00102526 5.60416e-09)
(-8.82466e-07 0.00227058 2.26623e-08)
(9.62458e-06 0.00351592 6.34054e-09)
(9.54976e-06 0.00476132 -1.7818e-08)
(-1.10486e-06 0.00600676 -2.91689e-08)
(-9.79514e-06 0.00725224 -1.26107e-08)
(-7.45486e-06 0.00103398 5.60432e-09)
(-8.89978e-07 0.0022899 2.26627e-08)
(9.70651e-06 0.00354585 6.34083e-09)
(9.63105e-06 0.00480184 -1.78179e-08)
(-1.11427e-06 0.00605788 -2.91689e-08)
(-9.87853e-06 0.00731396 -1.26106e-08)
(-7.51778e-06 0.00104271 5.60424e-09)
(-8.97489e-07 0.00230922 2.26623e-08)
(9.78845e-06 0.00357577 6.34047e-09)
(9.71235e-06 0.00484236 -1.78182e-08)
(-1.12367e-06 0.006109 -2.91692e-08)
(-9.96191e-06 0.00737568 -1.26106e-08)
(-7.58071e-06 0.00105143 5.60431e-09)
(-9.05e-07 0.00232855 2.26629e-08)
(9.87038e-06 0.00360569 6.34098e-09)
(9.79365e-06 0.00488288 -1.78179e-08)
(-1.13308e-06 0.00616012 -2.91687e-08)
(-1.00453e-05 0.0074374 -1.26107e-08)
(-7.64363e-06 0.00106016 5.60423e-09)
(-9.12511e-07 0.00234787 2.26625e-08)
(9.95232e-06 0.00363561 6.34066e-09)
(9.87494e-06 0.0049234 -1.78181e-08)
(-1.14248e-06 0.00621124 -2.9169e-08)
(-1.01287e-05 0.00749912 -1.26107e-08)
(-7.70656e-06 0.00106889 5.60435e-09)
(-9.20022e-07 0.0023672 2.26628e-08)
(1.00343e-05 0.00366554 6.34087e-09)
(9.95624e-06 0.00496392 -1.7818e-08)
(-1.15189e-06 0.00626237 -2.9169e-08)
(-1.02121e-05 0.00756084 -1.26107e-08)
(-7.76949e-06 0.00107761 5.60431e-09)
(-9.27534e-07 0.00238652 2.26626e-08)
(1.01162e-05 0.00369546 6.34067e-09)
(1.00375e-05 0.00500444 -1.78184e-08)
(-1.16129e-06 0.00631349 -2.91696e-08)
(-1.02954e-05 0.00762256 -1.26108e-08)
(-7.83241e-06 0.00108634 5.60445e-09)
(-9.35047e-07 0.00240584 2.26631e-08)
(1.01981e-05 0.00372538 6.341e-09)
(1.01188e-05 0.00504497 -1.78182e-08)
(-1.1707e-06 0.00636461 -2.91694e-08)
(-1.03788e-05 0.00768428 -1.26108e-08)
(-7.89534e-06 0.00109506 5.60439e-09)
(-9.42558e-07 0.00242517 2.26628e-08)
(1.02801e-05 0.0037553 6.34077e-09)
(1.02001e-05 0.00508549 -1.78185e-08)
(-1.1801e-06 0.00641573 -2.91699e-08)
(-1.04622e-05 0.007746 -1.26108e-08)
(-7.95827e-06 0.00110379 5.60443e-09)
(-9.50072e-07 0.00244449 2.26629e-08)
(1.0362e-05 0.00378523 6.34086e-09)
(1.02814e-05 0.00512601 -1.78184e-08)
(-1.18951e-06 0.00646685 -2.91697e-08)
(-1.05456e-05 0.00780773 -1.26107e-08)