/*--------------------------------*- C++ -*----------------------------------*\
| =========                 |                                                 |
| \\      /  F ield         | OpenFOAM: The Open Source CFD Toolbox           |
|  \\    /   O peration     | Version:  2206                                  |
|   \\  /    A nd           | Website:  www.openfoam.com                      |
|    \\/     M anipulation  |                                                 |
\*---------------------------------------------------------------------------*/
FoamFile
{
    version     2.0;
    format      ascii;
    arch        "LSB;label=32;scalar=64";
    class       volVectorField;
    location    "270";
    object      U;
}
// * * * * * * * * * * * * * * * * * * * * * * * * * * * * * * * * * * * * * //

dimensions      [0 1 -1 0 0 0 0];

internalField   nonuniform List<vector> 
100000
(
(-3.80174e-12 6.39142e-06 2.18613e-12)
(-3.6715e-12 1.18504e-05 8.59338e-14)
(-7.55918e-12 2.16273e-05 1.39711e-13)
(-1.40652e-11 3.21309e-05 1.49072e-13)
(-1.73256e-11 4.16629e-05 8.94298e-14)
(-1.63569e-11 4.40454e-05 7.26082e-14)
(-2.03678e-11 5.37911e-05 1.37508e-13)
(-2.5801e-11 6.44269e-05 1.47083e-13)
(-3.07375e-11 7.50461e-05 1.47274e-13)
(-3.53202e-11 8.46612e-05 8.29801e-14)
(-3.33964e-11 8.69798e-05 7.7196e-14)
(-3.77854e-11 9.67003e-05 1.41349e-13)
(-4.29438e-11 0.00010734 1.46622e-13)
(-4.81215e-11 0.000117968 1.46102e-13)
(-5.25334e-11 0.000127606 8.22575e-14)
(-5.05982e-11 0.000129913 7.76789e-14)
(-5.51574e-11 0.000139621 1.42482e-13)
(-5.99868e-11 0.000150261 1.46233e-13)
(-6.56505e-11 0.000160892 1.45876e-13)
(-6.93918e-11 0.000170541 8.11387e-14)
(-6.83185e-11 0.000172844 7.875e-14)
(-7.17834e-11 0.000182546 1.42206e-13)
(-7.79743e-11 0.000193192 1.4773e-13)
(-8.2054e-11 0.00020391 1.49335e-13)
(-8.8273e-11 0.000214549 1.46116e-13)
(-9.17605e-11 0.000224205 8.23574e-14)
(-9.06264e-11 0.000226506 7.9015e-14)
(-9.43718e-11 0.000236202 1.44572e-13)
(-1.00034e-10 0.000246842 1.47472e-13)
(-1.04875e-10 0.000257475 1.46424e-13)
(-1.09493e-10 0.000267135 8.1358e-14)
(-1.07429e-10 0.000269435 7.96191e-14)
(-1.11948e-10 0.000279128 1.44085e-13)
(-1.16968e-10 0.000289768 1.47645e-13)
(-1.22334e-10 0.000300402 1.45797e-13)
(-1.26514e-10 0.000310064 8.13646e-14)
(-1.24817e-10 0.000312364 7.94585e-14)
(-1.29036e-10 0.000322055 1.44228e-13)
(-1.34302e-10 0.000332694 1.47359e-13)
(-1.39462e-10 0.000343329 1.45676e-13)
(-1.43808e-10 0.000352993 8.10821e-14)
(-1.41978e-10 0.000355292 7.95775e-14)
(-1.46308e-10 0.000364982 1.44136e-13)
(-1.51483e-10 0.000375621 1.47307e-13)
(-1.56713e-10 0.000386256 1.45441e-13)
(-1.61001e-10 0.000395922 8.09815e-14)
(-1.59219e-10 0.00039822 7.95698e-14)
(-1.63515e-10 0.000407909 1.44151e-13)
(-1.68712e-10 0.000418547 1.4719e-13)
(-1.73928e-10 0.000429183 1.4532e-13)
(-1.78219e-10 0.00043885 8.08409e-14)
(-1.76444e-10 0.000441148 7.96197e-14)
(-1.80727e-10 0.000450836 1.44109e-13)
(-1.85946e-10 0.000461474 1.47149e-13)
(-1.91128e-10 0.00047211 1.45167e-13)
(-1.95462e-10 0.000481778 8.07845e-14)
(-1.93633e-10 0.000484076 7.95967e-14)
(-1.97985e-10 0.000493763 1.44147e-13)
(-2.03118e-10 0.000504401 1.47032e-13)
(-2.08404e-10 0.000515037 1.45135e-13)
(-2.1261e-10 0.000524706 8.0625e-14)
(-2.10939e-10 0.000527004 7.97105e-14)
(-2.15102e-10 0.00053669 1.4402e-13)
(-2.20462e-10 0.000547328 1.47122e-13)
(-2.25473e-10 0.000557964 1.44883e-13)
(-2.30008e-10 0.000567634 8.07598e-14)
(-2.27942e-10 0.000569932 7.94838e-14)
(-2.32581e-10 0.000579617 1.44301e-13)
(-2.37368e-10 0.000590255 1.46734e-13)
(-2.43067e-10 0.000600891 1.45225e-13)
(-2.46775e-10 0.000610562 8.02055e-14)
(-2.45702e-10 0.000612859 8.00971e-14)
(-2.49151e-10 0.000622545 1.43608e-13)
(-2.55371e-10 0.000633189 1.48231e-13)
(-2.59429e-10 0.000643908 1.48735e-13)
(-2.65654e-10 0.00065455 1.44818e-13)
(-2.69116e-10 0.000664221 8.12197e-14)
(-2.68016e-10 0.000666519 7.95615e-14)
(-2.71739e-10 0.000676203 1.44849e-13)
(-2.77421e-10 0.000686841 1.4711e-13)
(-2.82233e-10 0.000697478 1.45462e-13)
(-2.86864e-10 0.000707149 8.05303e-14)
(-2.84795e-10 0.000709447 8.00757e-14)
(-2.89323e-10 0.000719131 1.44385e-13)
(-2.94336e-10 0.000729769 1.47413e-13)
(-2.99702e-10 0.000740405 1.45092e-13)
(-3.03872e-10 0.000750076 8.07246e-14)
(-3.02188e-10 0.000752374 7.98672e-14)
(-3.06397e-10 0.000762058 1.44523e-13)
(-3.11675e-10 0.000772696 1.47227e-13)
(-3.16819e-10 0.000783332 1.45139e-13)
(-3.21174e-10 0.000793004 8.05871e-14)
(-3.19335e-10 0.000795302 7.99364e-14)
(-3.23677e-10 0.000804985 1.44438e-13)
(-3.2884e-10 0.000815623 1.4723e-13)
(-3.34082e-10 0.00082626 1.45046e-13)
(-3.38349e-10 0.000835932 8.05715e-14)
(-3.36592e-10 0.000838229 7.99157e-14)
(-3.40858e-10 0.000847912 1.44422e-13)
(-3.46094e-10 0.00085855 1.47192e-13)
(-3.51263e-10 0.000869187 1.44984e-13)
(-3.55606e-10 0.000878859 8.05521e-14)
(-3.53768e-10 0.000881157 7.98852e-14)
(-3.58125e-10 0.00089084 1.44437e-13)
(-3.63257e-10 0.000901478 1.47109e-13)
(-3.68544e-10 0.000912114 1.44997e-13)
(-3.72748e-10 0.000921787 8.0444e-14)
(-3.71075e-10 0.000924084 7.99735e-14)
(-3.75238e-10 0.000933767 1.44306e-13)
(-3.80601e-10 0.000944405 1.47214e-13)
(-3.85611e-10 0.000955041 1.44788e-13)
(-3.90146e-10 0.000964714 8.06132e-14)
(-3.88077e-10 0.000967012 7.97297e-14)
(-3.92715e-10 0.000976694 1.44578e-13)
(-3.97508e-10 0.000987332 1.46837e-13)
(-4.03203e-10 0.000997969 1.45167e-13)
(-4.06914e-10 0.00100764 8.00833e-14)
(-4.05835e-10 0.00100994 8.03338e-14)
(-4.09287e-10 0.00101962 1.43868e-13)
(-4.15507e-10 0.00103027 1.48349e-13)
(-4.19566e-10 0.00104099 1.4866e-13)
(-4.2579e-10 0.00105163 1.44614e-13)
(-4.2925e-10 0.0010613 8.10257e-14)
(-4.28154e-10 0.0010636 7.96857e-14)
(-4.31875e-10 0.00107328 1.44934e-13)
(-4.37558e-10 0.00108392 1.47065e-13)
(-4.42367e-10 0.00109456 1.45289e-13)
(-4.46999e-10 0.00110423 8.03693e-14)
(-4.44931e-10 0.00110653 8.01944e-14)
(-4.49458e-10 0.00111621 1.4448e-13)
(-4.54473e-10 0.00112685 1.47389e-13)
(-4.59836e-10 0.00113748 1.44951e-13)
(-4.64007e-10 0.00114716 8.05888e-14)
(-4.62321e-10 0.00114945 7.99812e-14)
(-4.66534e-10 0.00115914 1.44628e-13)
(-4.71808e-10 0.00116977 1.47216e-13)
(-4.76956e-10 0.00118041 1.45031e-13)
(-4.81304e-10 0.00119008 8.04652e-14)
(-4.79474e-10 0.00119238 8.00559e-14)
(-4.83805e-10 0.00120206 1.44538e-13)
(-4.88983e-10 0.0012127 1.47246e-13)
(-4.94208e-10 0.00122334 1.44946e-13)
(-4.98494e-10 0.00123301 8.04841e-14)
(-4.96713e-10 0.00123531 8.00119e-14)
(-5.01008e-10 0.00124499 1.44551e-13)
(-5.06211e-10 0.00125563 1.47189e-13)
(-5.1142e-10 0.00126626 1.44941e-13)
(-5.15713e-10 0.00127594 8.04355e-14)
(-5.13934e-10 0.00127824 8.00321e-14)
(-5.18219e-10 0.00128792 1.44505e-13)
(-5.23441e-10 0.00129856 1.47194e-13)
(-5.2862e-10 0.00130919 1.44877e-13)
(-5.32953e-10 0.00131887 8.04521e-14)
(-5.31123e-10 0.00132116 7.99834e-14)
(-5.35473e-10 0.00133084 1.44537e-13)
(-5.40613e-10 0.00134148 1.47112e-13)
(-5.45893e-10 0.00135212 1.44917e-13)
(-5.50102e-10 0.00136179 8.03509e-14)
(-5.48424e-10 0.00136409 8.00757e-14)
(-5.52591e-10 0.00137377 1.44404e-13)
(-5.57952e-10 0.00138441 1.47231e-13)
(-5.62964e-10 0.00139505 1.44721e-13)
(-5.67496e-10 0.00140472 8.05354e-14)
(-5.65429e-10 0.00140702 7.98272e-14)
(-5.70065e-10 0.0014167 1.44681e-13)
(-5.74861e-10 0.00142734 1.4686e-13)
(-5.80553e-10 0.00143797 1.45117e-13)
(-5.84266e-10 0.00144765 8.00133e-14)
(-5.83184e-10 0.00144995 8.04328e-14)
(-5.86638e-10 0.00145963 1.43969e-13)
(-5.92858e-10 0.00147027 1.48383e-13)
(-5.96917e-10 0.00148099 1.48601e-13)
(-6.0314e-10 0.00149163 1.44492e-13)
(-6.06599e-10 0.00150131 8.09184e-14)
(-6.05506e-10 0.00150361 7.97349e-14)
(-6.09225e-10 0.00151329 1.44954e-13)
(-6.1491e-10 0.00152392 1.47021e-13)
(-6.19717e-10 0.00153456 1.45179e-13)
(-6.24349e-10 0.00154424 8.02767e-14)
(-6.22281e-10 0.00154653 8.02421e-14)
(-6.26811e-10 0.00155621 1.44508e-13)
(-6.31823e-10 0.00156685 1.47353e-13)
(-6.37188e-10 0.00157749 1.44858e-13)
(-6.41356e-10 0.00158716 8.05038e-14)
(-6.39674e-10 0.00158946 8.00327e-14)
(-6.43882e-10 0.00159914 1.44658e-13)
(-6.49162e-10 0.00160978 1.47194e-13)
(-6.54303e-10 0.00162042 1.44946e-13)
(-6.58658e-10 0.00163009 8.03952e-14)
(-6.5682e-10 0.00163239 8.01007e-14)
(-6.61162e-10 0.00164207 1.44582e-13)
(-6.66326e-10 0.00165271 1.47221e-13)
(-6.71567e-10 0.00166334 1.44886e-13)
(-6.75834e-10 0.00167302 8.04058e-14)
(-6.74076e-10 0.00167532 8.00774e-14)
(-6.78343e-10 0.001685 1.44575e-13)
(-6.8358e-10 0.00169563 1.47201e-13)
(-6.88747e-10 0.00170627 1.44855e-13)
(-6.9309e-10 0.00171595 8.04079e-14)
(-6.91252e-10 0.00171824 8.00455e-14)
(-6.95608e-10 0.00172792 1.44596e-13)
(-7.00743e-10 0.00173856 1.47136e-13)
(-7.06028e-10 0.0017492 1.44893e-13)
(-7.10233e-10 0.00175887 8.03197e-14)
(-7.08557e-10 0.00176117 8.01313e-14)
(-7.12722e-10 0.00177085 1.4447e-13)
(-7.18085e-10 0.00178149 1.47255e-13)
(-7.23096e-10 0.00179212 1.44707e-13)
(-7.27629e-10 0.0018018 8.05063e-14)
(-7.25561e-10 0.0018041 7.98847e-14)
(-7.30197e-10 0.00181378 1.44747e-13)
(-7.34994e-10 0.00182442 1.46888e-13)
(-7.40686e-10 0.00183505 1.45108e-13)
(-7.44399e-10 0.00184473 7.99884e-14)
(-7.43316e-10 0.00184702 8.04906e-14)
(-7.4677e-10 0.00185671 1.44035e-13)
(-7.52991e-10 0.00186735 1.48416e-13)
(-7.5705e-10 0.00187807 1.48588e-13)
(-7.63273e-10 0.00188871 1.44447e-13)
(-7.66731e-10 0.00189839 8.08738e-14)
(-7.65638e-10 0.00190068 7.97681e-14)
(-7.69357e-10 0.00191036 1.4498e-13)
(-7.75043e-10 0.001921 1.47014e-13)
(-7.79849e-10 0.00193164 1.4514e-13)
(-7.84481e-10 0.00194131 8.0237e-14)
(-7.82414e-10 0.00194361 8.02764e-14)
(-7.86942e-10 0.00195329 1.44537e-13)
(-7.91956e-10 0.00196393 1.47352e-13)
(-7.97319e-10 0.00197457 1.44823e-13)
(-8.01489e-10 0.00198424 8.04707e-14)
(-7.99805e-10 0.00198654 8.00648e-14)
(-8.04016e-10 0.00199622 1.44693e-13)
(-8.09292e-10 0.00200686 1.47193e-13)
(-8.14438e-10 0.00201749 1.44922e-13)
(-8.18787e-10 0.00202717 8.03594e-14)
(-8.16956e-10 0.00202947 8.01415e-14)
(-8.21288e-10 0.00203915 1.4461e-13)
(-8.26466e-10 0.00204978 1.47235e-13)
(-8.31691e-10 0.00206042 1.44853e-13)
(-8.35976e-10 0.0020701 8.03908e-14)
(-8.34196e-10 0.00207239 8.00979e-14)
(-8.3849e-10 0.00208207 1.4463e-13)
(-8.43694e-10 0.00209271 1.47189e-13)
(-8.48902e-10 0.00210335 1.44864e-13)
(-8.53195e-10 0.00211302 8.03521e-14)
(-8.51416e-10 0.00211532 8.01196e-14)
(-8.55701e-10 0.002125 1.44589e-13)
(-8.60923e-10 0.00213564 1.47204e-13)
(-8.66102e-10 0.00214628 1.44813e-13)
(-8.70435e-10 0.00215595 8.0379e-14)
(-8.68605e-10 0.00215825 8.00709e-14)
(-8.72955e-10 0.00216793 1.44627e-13)
(-8.78096e-10 0.00217857 1.4713e-13)
(-8.83375e-10 0.0021892 1.44866e-13)
(-8.87584e-10 0.00219888 8.02858e-14)
(-8.85905e-10 0.00220118 8.01644e-14)
(-8.90073e-10 0.00221086 1.44497e-13)
(-8.95434e-10 0.00222149 1.47258e-13)
(-9.00447e-10 0.00223213 1.44681e-13)
(-9.04978e-10 0.00224181 8.04794e-14)
(-9.02911e-10 0.0022441 7.99149e-14)
(-9.07546e-10 0.00225378 1.44779e-13)
(-9.12344e-10 0.00226442 1.46892e-13)
(-9.18035e-10 0.00227506 1.45088e-13)
(-9.21749e-10 0.00228473 7.99618e-14)
(-9.20665e-10 0.00228703 8.0524e-14)
(-9.24119e-10 0.00229671 1.44066e-13)
(-9.3034e-10 0.00230735 1.48425e-13)
(-9.34399e-10 0.00231807 1.48563e-13)
(-9.40622e-10 0.00232872 1.44401e-13)
(-9.4408e-10 0.00233839 8.08331e-14)
(-9.42988e-10 0.00234069 7.97849e-14)
(-9.46707e-10 0.00235037 1.44984e-13)
(-9.52393e-10 0.00236101 1.46996e-13)
(-9.57197e-10 0.00237164 1.45096e-13)
(-9.61831e-10 0.00238132 8.02023e-14)
(-9.59762e-10 0.00238362 8.02914e-14)
(-9.64293e-10 0.0023933 1.44546e-13)
(-9.69304e-10 0.00240393 1.47335e-13)
(-9.74669e-10 0.00241457 1.44787e-13)
(-9.78836e-10 0.00242425 8.04354e-14)
(-9.77156e-10 0.00242655 8.00847e-14)
(-9.81364e-10 0.00243622 1.447e-13)
(-9.86644e-10 0.00244686 1.47184e-13)
(-9.91784e-10 0.0024575 1.44884e-13)
(-9.9614e-10 0.00246718 8.03344e-14)
(-9.94301e-10 0.00246947 8.01534e-14)
(-9.98643e-10 0.00247915 1.44629e-13)
(-1.00381e-09 0.00248979 1.47217e-13)
(-1.00905e-09 0.00250043 1.44834e-13)
(-1.01331e-09 0.0025101 8.03504e-14)
(-1.01156e-09 0.0025124 8.01321e-14)
(-1.01582e-09 0.00252208 1.44626e-13)
(-1.02106e-09 0.00253272 1.47205e-13)
(-1.02623e-09 0.00254335 1.44811e-13)
(-1.03057e-09 0.00255303 8.03589e-14)
(-1.02873e-09 0.00255533 8.01005e-14)
(-1.03309e-09 0.00256501 1.44651e-13)
(-1.03823e-09 0.00257564 1.47145e-13)
(-1.04351e-09 0.00258628 1.44857e-13)
(-1.04771e-09 0.00259596 8.02752e-14)
(-1.04604e-09 0.00259825 8.01882e-14)
(-1.0502e-09 0.00260793 1.44528e-13)
(-1.05557e-09 0.00261857 1.4727e-13)
(-1.06058e-09 0.00262921 1.44677e-13)
(-1.06511e-09 0.00263888 8.04678e-14)
(-1.06304e-09 0.00264118 7.99412e-14)
(-1.06768e-09 0.00265086 1.44809e-13)
(-1.07248e-09 0.0026615 1.46907e-13)
(-1.07817e-09 0.00267214 1.45087e-13)
(-1.08188e-09 0.00268181 7.99524e-14)
(-1.0808e-09 0.00268411 8.05504e-14)
(-1.08425e-09 0.00269379 1.44098e-13)
(-1.09047e-09 0.00270443 1.48441e-13)
(-1.09453e-09 0.00271515 1.4856e-13)
(-1.10075e-09 0.00272579 1.44383e-13)
(-1.10421e-09 0.00273547 8.08146e-14)
(-1.10312e-09 0.00273777 7.98008e-14)
(-1.10684e-09 0.00274745 1.44998e-13)
(-1.11252e-09 0.00275809 1.46995e-13)
(-1.11733e-09 0.00276872 1.45081e-13)
(-1.12196e-09 0.0027784 8.01852e-14)
(-1.11989e-09 0.0027807 8.03086e-14)
(-1.12442e-09 0.00279038 1.4456e-13)
(-1.12944e-09 0.00280101 1.47337e-13)
(-1.1348e-09 0.00281165 1.44772e-13)
(-1.13897e-09 0.00282133 8.04222e-14)
(-1.13729e-09 0.00282362 8.00996e-14)
(-1.1415e-09 0.0028333 1.44719e-13)
(-1.14677e-09 0.00284394 1.47184e-13)
(-1.15192e-09 0.00285458 1.44877e-13)
(-1.15627e-09 0.00286425 8.03162e-14)
(-1.15444e-09 0.00286655 8.01766e-14)
(-1.15877e-09 0.00287623 1.4464e-13)
(-1.16395e-09 0.00288687 1.4723e-13)
(-1.16917e-09 0.0028975 1.44815e-13)
(-1.17346e-09 0.00290718 8.03507e-14)
(-1.17168e-09 0.00290948 8.01351e-14)
(-1.17597e-09 0.00291916 1.44663e-13)
(-1.18118e-09 0.0029298 1.47189e-13)
(-1.18638e-09 0.00294043 1.4483e-13)
(-1.19068e-09 0.00295011 8.03167e-14)
(-1.1889e-09 0.00295241 8.0157e-14)
(-1.19318e-09 0.00296209 1.44626e-13)
(-1.1984e-09 0.00297272 1.47208e-13)
(-1.20358e-09 0.00298336 1.44786e-13)
(-1.20792e-09 0.00299304 8.03462e-14)
(-1.20609e-09 0.00299533 8.01102e-14)
(-1.21044e-09 0.00300501 1.44666e-13)
(-1.21558e-09 0.00301565 1.47139e-13)
(-1.22086e-09 0.00302629 1.44843e-13)
(-1.22507e-09 0.00303596 8.02573e-14)
(-1.22339e-09 0.00303826 8.02037e-14)
(-1.22755e-09 0.00304794 1.4454e-13)
(-1.23292e-09 0.00305858 1.4727e-13)
(-1.23793e-09 0.00306921 1.44663e-13)
(-1.24246e-09 0.00307889 8.04532e-14)
(-1.24039e-09 0.00308119 7.99557e-14)
(-1.24503e-09 0.00309087 1.44824e-13)
(-1.24983e-09 0.0031015 1.46908e-13)
(-1.25552e-09 0.00311214 1.45075e-13)
(-1.25923e-09 0.00312182 7.99387e-14)
(-1.25814e-09 0.00312412 8.05657e-14)
(-1.2616e-09 0.0031338 1.44113e-13)
(-1.26782e-09 0.00314444 1.48444e-13)
(-1.27188e-09 0.00315516 1.48546e-13)
(-1.2781e-09 0.0031658 1.44357e-13)
(-1.28156e-09 0.00317548 8.07936e-14)
(-1.28047e-09 0.00317777 7.98079e-14)
(-1.28419e-09 0.00318745 1.44999e-13)
(-1.28987e-09 0.00319809 1.46983e-13)
(-1.29468e-09 0.00320873 1.45057e-13)
(-1.29931e-09 0.0032184 8.0166e-14)
(-1.29724e-09 0.0032207 8.03159e-14)
(-1.30177e-09 0.00323038 1.44563e-13)
(-1.30679e-09 0.00324102 1.47326e-13)
(-1.31215e-09 0.00325166 1.44752e-13)
(-1.31632e-09 0.00326133 8.0403e-14)
(-1.31464e-09 0.00326363 8.01094e-14)
(-1.31884e-09 0.00327331 1.44721e-13)
(-1.32413e-09 0.00328395 1.47178e-13)
(-1.32926e-09 0.00329458 1.44854e-13)
(-1.33362e-09 0.00330426 8.03036e-14)
(-1.33178e-09 0.00330656 8.01802e-14)
(-1.33612e-09 0.00331624 1.44652e-13)
(-1.34129e-09 0.00332687 1.47216e-13)
(-1.34653e-09 0.00333751 1.44807e-13)
(-1.3508e-09 0.00334719 8.03235e-14)
(-1.34904e-09 0.00334948 8.01587e-14)
(-1.3533e-09 0.00335916 1.44652e-13)
(-1.35854e-09 0.0033698 1.47206e-13)
(-1.36371e-09 0.00338044 1.44789e-13)
(-1.36805e-09 0.00339011 8.03334e-14)
(-1.36621e-09 0.00339241 8.01292e-14)
(-1.37057e-09 0.00340209 1.44679e-13)
(-1.37571e-09 0.00341273 1.4715e-13)
(-1.38099e-09 0.00342337 1.44838e-13)
(-1.3852e-09 0.00343304 8.02532e-14)
(-1.38352e-09 0.00343534 8.02166e-14)
(-1.38768e-09 0.00344502 1.44559e-13)
(-1.39305e-09 0.00345566 1.47277e-13)
(-1.39806e-09 0.00346629 1.44663e-13)
(-1.40259e-09 0.00347597 8.04471e-14)
(-1.40052e-09 0.00347827 7.99713e-14)
(-1.40516e-09 0.00348795 1.44841e-13)
(-1.40996e-09 0.00349858 1.46918e-13)
(-1.41565e-09 0.00350922 1.45075e-13)
(-1.41936e-09 0.0035189 7.99343e-14)
(-1.41828e-09 0.00352119 8.0581e-14)
(-1.42173e-09 0.00353087 1.44131e-13)
(-1.42795e-09 0.00354152 1.48454e-13)
(-1.43201e-09 0.00355224 1.48546e-13)
(-1.43823e-09 0.00356288 1.44348e-13)
(-1.44169e-09 0.00357256 8.0784e-14)
(-1.4406e-09 0.00357485 7.98173e-14)
(-1.44432e-09 0.00358453 1.45008e-13)
(-1.45001e-09 0.00359517 1.46983e-13)
(-1.45481e-09 0.00360581 1.4505e-13)
(-1.45944e-09 0.00361548 8.01566e-14)
(-1.45738e-09 0.00361778 8.03267e-14)
(-1.4619e-09 0.00362746 1.44572e-13)
(-1.46692e-09 0.0036381 1.47329e-13)
(-1.47228e-09 0.00364873 1.44744e-13)
(-1.47645e-09 0.00365841 8.03968e-14)
(-1.47477e-09 0.00366071 8.01176e-14)
(-1.47898e-09 0.00367039 1.44735e-13)
(-1.48425e-09 0.00368102 1.47178e-13)
(-1.4894e-09 0.00369166 1.44853e-13)
(-1.49375e-09 0.00370134 8.02918e-14)
(-1.49192e-09 0.00370364 8.01967e-14)
(-1.49625e-09 0.00371331 1.44656e-13)
(-1.50143e-09 0.00372395 1.47228e-13)
(-1.50665e-09 0.00373459 1.44793e-13)
(-1.51094e-09 0.00374427 8.03295e-14)
(-1.50916e-09 0.00374656 8.01548e-14)
(-1.51345e-09 0.00375624 1.44682e-13)
(-1.51866e-09 0.00376688 1.47189e-13)
(-1.52386e-09 0.00377752 1.44812e-13)
(-1.52816e-09 0.00378719 8.02962e-14)
(-1.52638e-09 0.00378949 8.01787e-14)
(-1.53066e-09 0.00379917 1.44646e-13)
(-1.53589e-09 0.00380981 1.47211e-13)
(-1.54106e-09 0.00382044 1.4477e-13)
(-1.5454e-09 0.00383012 8.03287e-14)
(-1.54357e-09 0.00383242 8.01315e-14)
(-1.54792e-09 0.0038421 1.44689e-13)
(-1.55306e-09 0.00385273 1.47143e-13)
(-1.55834e-09 0.00386337 1.44831e-13)
(-1.56255e-09 0.00387305 8.02402e-14)
(-1.56087e-09 0.00387535 8.0227e-14)
(-1.56503e-09 0.00388502 1.44563e-13)
(-1.5704e-09 0.00389566 1.47277e-13)
(-1.57541e-09 0.0039063 1.44652e-13)
(-1.57994e-09 0.00391598 8.04392e-14)
(-1.57787e-09 0.00391827 7.99782e-14)
(-1.58251e-09 0.00392795 1.4485e-13)
(-1.58731e-09 0.00393859 1.46916e-13)
(-1.593e-09 0.00394923 1.45068e-13)
(-1.59671e-09 0.0039589 7.99244e-14)
(-1.59562e-09 0.0039612 8.05908e-14)
(-1.59908e-09 0.00397088 1.44138e-13)
(-1.6053e-09 0.00398152 1.48456e-13)
(-1.60936e-09 0.00399224 1.48535e-13)
(-1.61558e-09 0.00400288 1.44333e-13)
(-1.61904e-09 0.00401256 8.07696e-14)
(-1.61795e-09 0.00401486 7.98223e-14)
(-1.62167e-09 0.00402454 1.45006e-13)
(-1.62735e-09 0.00403518 1.46977e-13)
(-1.63216e-09 0.00404581 1.45033e-13)
(-1.63679e-09 0.00405549 8.01457e-14)
(-1.63472e-09 0.00405779 8.03293e-14)
(-1.63925e-09 0.00406747 1.44574e-13)
(-1.64427e-09 0.0040781 1.47321e-13)
(-1.64963e-09 0.00408874 1.44732e-13)
(-1.6538e-09 0.00409842 8.03828e-14)
(-1.65212e-09 0.00410071 8.0125e-14)
(-1.65632e-09 0.00411039 1.44733e-13)
(-1.66161e-09 0.00412103 1.47176e-13)
(-1.66674e-09 0.00413167 1.44836e-13)
(-1.6711e-09 0.00414134 8.02864e-14)
(-1.66926e-09 0.00414364 8.01952e-14)
(-1.6736e-09 0.00415332 1.44666e-13)
(-1.67877e-09 0.00416396 1.47214e-13)
(-1.68401e-09 0.00417459 1.44792e-13)
(-1.68828e-09 0.00418427 8.03063e-14)
(-1.68652e-09 0.00418657 8.01757e-14)
(-1.69078e-09 0.00419625 1.44667e-13)
(-1.69602e-09 0.00420688 1.47207e-13)
(-1.70119e-09 0.00421752 1.44775e-13)
(-1.70553e-09 0.0042272 8.0319e-14)
(-1.70369e-09 0.0042295 8.01456e-14)
(-1.70805e-09 0.00423917 1.44696e-13)
(-1.71319e-09 0.00424981 1.47152e-13)
(-1.71847e-09 0.00426045 1.44827e-13)
(-1.72268e-09 0.00427013 8.02388e-14)
(-1.721e-09 0.00427242 8.02349e-14)
(-1.72516e-09 0.0042821 1.44576e-13)
(-1.73053e-09 0.00429274 1.47282e-13)
(-1.73554e-09 0.00430338 1.44653e-13)
(-1.74007e-09 0.00431305 8.04355e-14)
(-1.738e-09 0.00431535 7.99888e-14)
(-1.74264e-09 0.00432503 1.44862e-13)
(-1.74744e-09 0.00433567 1.46923e-13)
(-1.75313e-09 0.0043463 1.45068e-13)
(-1.75684e-09 0.00435598 7.99222e-14)
(-1.75576e-09 0.00435828 8.06009e-14)
(-1.75921e-09 0.00436796 1.44151e-13)
(-1.76543e-09 0.0043786 1.48463e-13)
(-1.76949e-09 0.00438932 1.48536e-13)
(-1.77571e-09 0.00439996 1.44328e-13)
(-1.77917e-09 0.00440964 8.0764e-14)
(-1.77808e-09 0.00441194 7.98287e-14)
(-1.7818e-09 0.00442162 1.45013e-13)
(-1.78749e-09 0.00443225 1.46977e-13)
(-1.79229e-09 0.00444289 1.4503e-13)
(-1.79692e-09 0.00445257 8.01398e-14)
(-1.79486e-09 0.00445487 8.03369e-14)
(-1.79938e-09 0.00446454 1.4458e-13)
(-1.8044e-09 0.00447518 1.47324e-13)
(-1.80976e-09 0.00448582 1.44727e-13)
(-1.81393e-09 0.00449549 8.03798e-14)
(-1.81225e-09 0.00449779 8.013e-14)
(-1.81646e-09 0.00450747 1.44743e-13)
(-1.82173e-09 0.00451811 1.47175e-13)
(-1.82688e-09 0.00452875 1.44837e-13)
(-1.83123e-09 0.00453842 8.02774e-14)
(-1.8294e-09 0.00454072 8.02083e-14)
(-1.83373e-09 0.0045504 1.44668e-13)
(-1.83891e-09 0.00456104 1.47226e-13)
(-1.84413e-09 0.00457167 1.4478e-13)
(-1.84842e-09 0.00458135 8.03149e-14)
(-1.84664e-09 0.00458365 8.01685e-14)
(-1.85093e-09 0.00459333 1.44693e-13)
(-1.85614e-09 0.00460396 1.4719e-13)
(-1.86134e-09 0.0046146 1.448e-13)
(-1.86564e-09 0.00462428 8.02842e-14)
(-1.86386e-09 0.00462657 8.01915e-14)
(-1.86814e-09 0.00463625 1.4466e-13)
(-1.87337e-09 0.00464689 1.47212e-13)
(-1.87854e-09 0.00465753 1.4476e-13)
(-1.88288e-09 0.0046672 8.03163e-14)
(-1.88105e-09 0.0046695 8.01463e-14)
(-1.8854e-09 0.00467918 1.44702e-13)
(-1.89054e-09 0.00468982 1.47147e-13)
(-1.89582e-09 0.00470046 1.44822e-13)
(-1.90003e-09 0.00471013 8.02303e-14)
(-1.89835e-09 0.00471243 8.02408e-14)
(-1.90251e-09 0.00472211 1.44579e-13)
(-1.90788e-09 0.00473275 1.47281e-13)
(-1.91289e-09 0.00474338 1.44646e-13)
(-1.91742e-09 0.00475306 8.04289e-14)
(-1.91535e-09 0.00475536 7.9994e-14)
(-1.91999e-09 0.00476504 1.44866e-13)
(-1.92479e-09 0.00477567 1.46922e-13)
(-1.93048e-09 0.00478631 1.45062e-13)
(-1.93419e-09 0.00479599 7.99163e-14)
(-1.9331e-09 0.00479828 8.0606e-14)
(-1.93656e-09 0.00480796 1.44156e-13)
(-1.94278e-09 0.00481861 1.48462e-13)
(-1.94684e-09 0.00482933 1.4853e-13)
(-1.95306e-09 0.00483997 1.44316e-13)
(-1.95652e-09 0.00484965 8.07551e-14)
(-1.95543e-09 0.00485194 7.98305e-14)
(-1.95915e-09 0.00486162 1.45012e-13)
(-1.96484e-09 0.00487226 1.46971e-13)
(-1.96964e-09 0.0048829 1.45019e-13)
(-1.97427e-09 0.00489257 8.01311e-14)
(-1.9722e-09 0.00489487 8.03393e-14)
(-1.97673e-09 0.00490455 1.4458e-13)
(-1.98175e-09 0.00491519 1.47318e-13)
(-1.98711e-09 0.00492582 1.44718e-13)
(-1.99128e-09 0.0049355 8.03707e-14)
(-1.9896e-09 0.0049378 8.01341e-14)
(-1.9938e-09 0.00494748 1.44741e-13)
(-1.99909e-09 0.00495811 1.47173e-13)
(-2.00422e-09 0.00496875 1.44824e-13)
(-2.00858e-09 0.00497843 8.02737e-14)
(-2.00674e-09 0.00498073 8.02064e-14)
(-2.01108e-09 0.0049904 1.44675e-13)
(-2.01625e-09 0.00500104 1.47214e-13)
(-2.02149e-09 0.00501168 1.44781e-13)
(-2.02576e-09 0.00502136 8.02962e-14)
(-2.024e-09 0.00502365 8.01858e-14)
(-2.02827e-09 0.00503333 1.44678e-13)
(-2.0335e-09 0.00504397 1.47207e-13)
(-2.03867e-09 0.00505461 1.44767e-13)
(-2.04301e-09 0.00506428 8.03082e-14)
(-2.04117e-09 0.00506658 8.01578e-14)
(-2.04553e-09 0.00507626 1.44707e-13)
(-2.05067e-09 0.0050869 1.47155e-13)
(-2.05595e-09 0.00509753 1.44819e-13)
(-2.06016e-09 0.00510721 8.02304e-14)
(-2.05848e-09 0.00510951 8.0246e-14)
(-2.06264e-09 0.00511919 1.44589e-13)
(-2.06801e-09 0.00512982 1.47284e-13)
(-2.07302e-09 0.00514046 1.44647e-13)
(-2.07755e-09 0.00515014 8.04264e-14)
(-2.07548e-09 0.00515244 8.00018e-14)
(-2.08012e-09 0.00516211 1.44875e-13)
(-2.08492e-09 0.00517275 1.46928e-13)
(-2.09061e-09 0.00518339 1.45063e-13)
(-2.09432e-09 0.00519307 7.99152e-14)
(-2.09324e-09 0.00519536 8.06131e-14)
(-2.09669e-09 0.00520504 1.44166e-13)
(-2.10291e-09 0.00521568 1.48468e-13)
(-2.10697e-09 0.0052264 1.48531e-13)
(-2.11319e-09 0.00523705 1.44313e-13)
(-2.11665e-09 0.00524672 8.07517e-14)
(-2.11556e-09 0.00524902 7.98351e-14)
(-2.11928e-09 0.0052587 1.45018e-13)
(-2.12497e-09 0.00526934 1.46972e-13)
(-2.12977e-09 0.00527998 1.45017e-13)
(-2.1344e-09 0.00528965 8.01271e-14)
(-2.13234e-09 0.00529195 8.03452e-14)
(-2.13686e-09 0.00530163 1.44585e-13)
(-2.14188e-09 0.00531227 1.47321e-13)
(-2.14724e-09 0.0053229 1.44715e-13)
(-2.15141e-09 0.00533258 8.03695e-14)
(-2.14973e-09 0.00533488 8.01371e-14)
(-2.15394e-09 0.00534456 1.4475e-13)
(-2.15921e-09 0.00535519 1.47172e-13)
(-2.16436e-09 0.00536583 1.44827e-13)
(-2.16871e-09 0.00537551 8.02662e-14)
(-2.16688e-09 0.0053778 8.02176e-14)
(-2.17121e-09 0.00538748 1.44674e-13)
(-2.17639e-09 0.00539812 1.47226e-13)
(-2.18161e-09 0.00540876 1.4477e-13)
(-2.1859e-09 0.00541843 8.03061e-14)
(-2.18412e-09 0.00542073 8.01766e-14)
(-2.18841e-09 0.00543041 1.44703e-13)
(-2.19362e-09 0.00544105 1.47189e-13)
(-2.19882e-09 0.00545168 1.44793e-13)
(-2.20312e-09 0.00546136 8.02745e-14)
(-2.20134e-09 0.00546366 8.02017e-14)
(-2.20562e-09 0.00547334 1.44668e-13)
(-2.21085e-09 0.00548397 1.47214e-13)
(-2.21602e-09 0.00549461 1.44752e-13)
(-2.22036e-09 0.00550429 8.03091e-14)
(-2.21853e-09 0.00550659 8.01552e-14)
(-2.22288e-09 0.00551626 1.44713e-13)
(-2.22802e-09 0.0055269 1.47148e-13)
(-2.2333e-09 0.00553754 1.44817e-13)
(-2.23751e-09 0.00554722 8.02221e-14)
(-2.23583e-09 0.00554951 8.02519e-14)
(-2.23999e-09 0.00555919 1.44589e-13)
(-2.24536e-09 0.00556983 1.47285e-13)
(-2.25037e-09 0.00558047 1.4464e-13)
(-2.2549e-09 0.00559014 8.04231e-14)
(-2.25283e-09 0.00559244 8.00036e-14)
(-2.25747e-09 0.00560212 1.44879e-13)
(-2.26227e-09 0.00561276 1.46925e-13)
(-2.26796e-09 0.00562339 1.45059e-13)
(-2.27167e-09 0.00563307 7.99092e-14)
(-2.27058e-09 0.00563537 8.06181e-14)
(-2.27404e-09 0.00564505 1.44168e-13)
(-2.28026e-09 0.00565569 1.48468e-13)
(-2.28432e-09 0.00566641 1.48524e-13)
(-2.29054e-09 0.00567705 1.44305e-13)
(-2.294e-09 0.00568673 8.07435e-14)
(-2.29291e-09 0.00568903 7.98378e-14)
(-2.29663e-09 0.00569871 1.45015e-13)
(-2.30232e-09 0.00570934 1.46969e-13)
(-2.30712e-09 0.00571998 1.45007e-13)
(-2.31175e-09 0.00572966 8.01223e-14)
(-2.30968e-09 0.00573196 8.0345e-14)
(-2.31421e-09 0.00574163 1.44586e-13)
(-2.31923e-09 0.00575227 1.47315e-13)
(-2.32459e-09 0.00576291 1.44709e-13)
(-2.32876e-09 0.00577259 8.03606e-14)
(-2.32708e-09 0.00577488 8.0142e-14)
(-2.33128e-09 0.00578456 1.44746e-13)
(-2.33657e-09 0.0057952 1.47173e-13)
(-2.3417e-09 0.00580584 1.44815e-13)
(-2.34606e-09 0.00581551 8.02661e-14)
(-2.34422e-09 0.00581781 8.02129e-14)
(-2.34856e-09 0.00582749 1.44682e-13)
(-2.35373e-09 0.00583813 1.47213e-13)
(-2.35897e-09 0.00584876 1.44775e-13)
(-2.36324e-09 0.00585844 8.02874e-14)
(-2.36148e-09 0.00586074 8.01946e-14)
(-2.36575e-09 0.00587042 1.44684e-13)
(-2.37098e-09 0.00588105 1.47209e-13)
(-2.37615e-09 0.00589169 1.44759e-13)
(-2.38049e-09 0.00590137 8.03019e-14)
(-2.37865e-09 0.00590366 8.0165e-14)
(-2.38301e-09 0.00591334 1.44716e-13)
(-2.38815e-09 0.00592398 1.47155e-13)
(-2.39343e-09 0.00593462 1.44815e-13)
(-2.39764e-09 0.00594429 8.02229e-14)
(-2.39596e-09 0.00594659 8.02555e-14)
(-2.40012e-09 0.00595627 1.44597e-13)
(-2.40549e-09 0.00596691 1.47288e-13)
(-2.4105e-09 0.00597755 1.44642e-13)
(-2.41503e-09 0.00598722 8.04213e-14)
(-2.41296e-09 0.00598952 8.00097e-14)
(-2.4176e-09 0.0059992 1.44885e-13)
(-2.4224e-09 0.00600984 1.4693e-13)
(-2.42809e-09 0.00602047 1.4506e-13)
(-2.4318e-09 0.00603015 7.99086e-14)
(-2.43072e-09 0.00603245 8.06235e-14)
(-2.43417e-09 0.00604213 1.44175e-13)
(-2.44039e-09 0.00605277 1.48473e-13)
(-2.44445e-09 0.00606349 1.48525e-13)
(-2.45067e-09 0.00607413 1.44303e-13)
(-2.45413e-09 0.00608381 8.07412e-14)
(-2.45304e-09 0.00608611 7.98413e-14)
(-2.45676e-09 0.00609578 1.4502e-13)
(-2.46245e-09 0.00610642 1.4697e-13)
(-2.46725e-09 0.00611706 1.45006e-13)
(-2.47188e-09 0.00612674 8.01194e-14)
(-2.46982e-09 0.00612903 8.03497e-14)
(-2.47434e-09 0.00613871 1.4459e-13)
(-2.47936e-09 0.00614935 1.47318e-13)
(-2.48472e-09 0.00615999 1.44707e-13)
(-2.48889e-09 0.00616966 8.03604e-14)
(-2.48721e-09 0.00617196 8.0144e-14)
(-2.49142e-09 0.00618164 1.44754e-13)
(-2.49669e-09 0.00619228 1.47172e-13)
(-2.50184e-09 0.00620291 1.44818e-13)
(-2.50619e-09 0.00621259 8.02596e-14)
(-2.50436e-09 0.00621489 8.02228e-14)
(-2.50869e-09 0.00622457 1.4468e-13)
(-2.51387e-09 0.0062352 1.47224e-13)
(-2.51909e-09 0.00624584 1.44764e-13)
(-2.52338e-09 0.00625552 8.02981e-14)
(-2.5216e-09 0.00625782 8.01841e-14)
(-2.52589e-09 0.00626749 1.44708e-13)
(-2.5311e-09 0.00627813 1.4719e-13)
(-2.5363e-09 0.00628877 1.44786e-13)
(-2.5406e-09 0.00629845 8.0269e-14)
(-2.53882e-09 0.00630074 8.02076e-14)
(-2.5431e-09 0.00631042 1.44676e-13)
(-2.54833e-09 0.00632106 1.47214e-13)
(-2.5535e-09 0.0063317 1.44748e-13)
(-2.55784e-09 0.00634137 8.03021e-14)
(-2.55601e-09 0.00634367 8.01634e-14)
(-2.56036e-09 0.00635335 1.4472e-13)
(-2.5655e-09 0.00636399 1.47151e-13)
(-2.57078e-09 0.00637462 1.44811e-13)
(-2.57499e-09 0.0063843 8.02176e-14)
(-2.57331e-09 0.0063866 8.02584e-14)
(-2.57747e-09 0.00639628 1.44598e-13)
(-2.58284e-09 0.00640691 1.47286e-13)
(-2.58785e-09 0.00641755 1.44638e-13)
(-2.59238e-09 0.00642723 8.04172e-14)
(-2.59031e-09 0.00642953 8.00124e-14)
(-2.59495e-09 0.0064392 1.44886e-13)
(-2.59975e-09 0.00644984 1.46929e-13)
(-2.60544e-09 0.00646048 1.45056e-13)
(-2.60915e-09 0.00647016 7.99056e-14)
(-2.60806e-09 0.00647245 8.06253e-14)
(-2.61152e-09 0.00648213 1.44178e-13)
(-2.61774e-09 0.00649277 1.48471e-13)
(-2.6218e-09 0.00650349 1.48522e-13)
(-2.62802e-09 0.00651414 1.44296e-13)
(-2.63148e-09 0.00652381 8.07365e-14)
(-2.63039e-09 0.00652611 7.98415e-14)
(-2.63411e-09 0.00653579 1.45019e-13)
(-2.6398e-09 0.00654643 1.46965e-13)
(-2.6446e-09 0.00655706 1.45e-13)
(-2.64923e-09 0.00656674 8.0114e-14)
(-2.64716e-09 0.00656904 8.03509e-14)
(-2.65169e-09 0.00657872 1.44589e-13)
(-2.65671e-09 0.00658936 1.47314e-13)
(-2.66207e-09 0.00659999 1.44701e-13)
(-2.66624e-09 0.00660967 8.03549e-14)
(-2.66456e-09 0.00661197 8.01462e-14)
(-2.66876e-09 0.00662165 1.44752e-13)
(-2.67405e-09 0.00663228 1.47171e-13)