/*--------------------------------*- C++ -*----------------------------------*\
| =========                 |                                                 |
| \\      /  F ield         | OpenFOAM: The Open Source CFD Toolbox           |
|  \\    /   O peration     | Version:  2206                                  |
|   \\  /    A nd           | Website:  www.openfoam.com                      |
|    \\/     M anipulation  |                                                 |
\*---------------------------------------------------------------------------*/
FoamFile
{
    version     2.0;
    format      ascii;
    arch        "LSB;label=32;scalar=64";
    class       volScalarField;
    location    "2000";
    object      p;
}
// * * * * * * * * * * * * * * * * * * * * * * * * * * * * * * * * * * * * * //

dimensions      [0 2 -2 0 0 0 0];

internalField   nonuniform List<scalar> 
100
(
-3.45985691e-09
0.0389072693
0.0571070301
0.0744326951
0.0879603746
0.0991570249
0.108449347
0.116248174
0.122851455
0.128487705
0.13333369
0.137527904
0.141180041
0.144377868
0.14719225
0.149680897
0.15189117
0.153862223
0.155626636
0.157211694
0.158640376
0.159932147
0.161103569
0.162168813
0.163140048
0.164027779
0.1648411
0.165587923
0.166275149
0.166908824
0.167494256
0.168036123
0.168538561
0.169005233
0.169439395
0.169843949
0.170221482
0.170574314
0.170904525
0.171213986
0.171504378
0.171777226
0.172033901
0.172275652
0.172503609
0.172718799
0.17292216
0.173114545
0.173296735
0.173469444
0.173633324
0.173788978
0.173936954
0.174077762
0.174211867
0.1743397
0.174461659
0.174578112
0.174689397
0.174795832
0.174897706
0.174995293
0.175088842
0.17517859
0.175264754
0.175347537
0.175427129
0.175503707
0.175577436
0.175648471
0.175716956
0.175783029
0.175846813
0.17590843
0.175967991
0.176025602
0.17608136
0.176135359
0.176187687
0.176238425
0.176287652
0.17633544
0.176381859
0.176426975
0.176470848
0.176513538
0.176555099
0.176595583
0.176635041
0.176673519
0.176711062
0.176747714
0.176783513
0.176818487
0.176852649
0.176886088
0.1769192
0.176952348
0.176982762
0.177000413
)
;

boundaryField
{
    left
    {
        type            wedge;
    }
    right
    {
        type            wedge;
    }
    outerWall
    {
        type            zeroGradient;
    }
    innerWall
    {
        type            zeroGradient;
    }
    frontAndBack
    {
        type            empty;
    }
}


// ************************************************************************* //
