/*--------------------------------*- C++ -*----------------------------------*\
| =========                 |                                                 |
| \\      /  F ield         | OpenFOAM: The Open Source CFD Toolbox           |
|  \\    /   O peration     | Version:  2206                                  |
|   \\  /    A nd           | Website:  www.openfoam.com                      |
|    \\/     M anipulation  |                                                 |
\*---------------------------------------------------------------------------*/
FoamFile
{
    version     2.0;
    format      ascii;
    arch        "LSB;label=32;scalar=64";
    class       surfaceScalarField;
    location    "2000";
    object      phi;
}
// * * * * * * * * * * * * * * * * * * * * * * * * * * * * * * * * * * * * * //

dimensions      [0 3 -1 0 0 0 0];

oriented        oriented;

internalField   nonuniform List<scalar> 
99
(
1.97508453e-10
3.79244616e-10
5.47247914e-10
7.03419007e-10
8.49234826e-10
9.85939974e-10
1.11453976e-09
1.2359121e-09
1.3507672e-09
1.45975272e-09
1.56338424e-09
1.66215851e-09
1.75645657e-09
1.84667242e-09
1.93308968e-09
2.01603233e-09
2.09571098e-09
2.17239996e-09
2.2462527e-09
2.31751039e-09
2.38628009e-09
2.4527797e-09
2.51707724e-09
2.57937674e-09
2.63971262e-09
2.69827998e-09
2.75508294e-09
2.81031421e-09
2.86395042e-09
2.91618415e-09
2.96696629e-09
3.01649391e-09
3.06469367e-09
3.11176816e-09
3.15762068e-09
3.20246278e-09
3.24617542e-09
3.28897929e-09
3.33073347e-09
3.37167046e-09
3.41162816e-09
3.45085068e-09
3.48915509e-09
3.52679894e-09
3.56357915e-09
3.59976614e-09
3.63513714e-09
3.66997684e-09
3.70404311e-09
3.73763465e-09
3.77049079e-09
3.8029239e-09
3.83465567e-09
3.8660117e-09
3.89669806e-09
3.92705144e-09
3.95676336e-09
3.986182e-09
4.01498769e-09
4.04353424e-09
4.07149294e-09
4.09922405e-09
4.12639529e-09
4.15336434e-09
4.17979765e-09
4.20605328e-09
4.23180182e-09
4.2573903e-09
4.28249601e-09
4.30745902e-09
4.33196745e-09
4.35634526e-09
4.38029195e-09
4.40412165e-09
4.42754688e-09
4.45086405e-09
4.47379793e-09
4.49663475e-09
4.51911303e-09
4.54150038e-09
4.56354826e-09
4.58551335e-09
4.60716515e-09
4.6287349e-09
4.65001397e-09
4.67121249e-09
4.69215167e-09
4.71300454e-09
4.73362541e-09
4.7541566e-09
4.77448844e-09
4.79472148e-09
4.81478278e-09
4.83473939e-09
4.85455111e-09
4.87425476e-09
4.89383563e-09
4.91330624e-09
4.93267641e-09
)
;

boundaryField
{
    left
    {
        type            wedge;
        value           nonuniform List<scalar> 
100
(
1.33946454e-05
1.23253355e-05
1.13943431e-05
1.05914259e-05
9.88958333e-06
9.27114748e-06
8.7220073e-06
8.2311679e-06
7.78985414e-06
7.39097027e-06
7.02871692e-06
6.69830762e-06
6.39575641e-06
6.11771756e-06
5.86136174e-06
5.62427943e-06
5.40440687e-06
5.19996519e-06
5.00941278e-06
4.83140792e-06
4.66477652e-06
4.50848668e-06
4.36162861e-06
4.22339633e-06
4.09307322e-06
3.97002072e-06
3.85366731e-06
3.74349989e-06
3.6390572e-06
3.53992281e-06
3.44571974e-06
3.35610662e-06
3.2707729e-06
3.18943548e-06
3.11183637e-06
3.03773934e-06
2.96692771e-06
2.89920294e-06
2.83438214e-06
2.77229695e-06
2.71279176e-06
2.65572308e-06
2.60095796e-06
2.54837295e-06
2.49785381e-06
2.44929418e-06
2.40259493e-06
2.35766398e-06
2.31441526e-06
2.27276826e-06
2.23264795e-06
2.19398397e-06
2.15671022e-06
2.12076501e-06
2.08609023e-06
2.05263115e-06
2.02033655e-06
1.98915804e-06
1.95904992e-06
1.9299693e-06
1.90187559e-06
1.87473029e-06
1.84849725e-06
1.8231421e-06
1.79863236e-06
1.77493709e-06
1.75202719e-06
1.7298749e-06
1.70845376e-06
1.68773885e-06
1.66770633e-06
1.64833342e-06
1.62959866e-06
1.61148147e-06
1.59396213e-06
1.57702202e-06
1.5606433e-06
1.54480878e-06
1.52950228e-06
1.51470819e-06
1.5004115e-06
1.48659802e-06
1.47325409e-06
1.46036648e-06
1.44792274e-06
1.4359108e-06
1.424319e-06
1.41313633e-06
1.40235208e-06
1.39195601e-06
1.38193818e-06
1.37228916e-06
1.36299982e-06
1.3540612e-06
1.34546481e-06
1.33720217e-06
1.32926456e-06
1.32164284e-06
1.31432622e-06
1.30729893e-06
)
;
    }
    right
    {
        type            wedge;
        value           nonuniform List<scalar> 
100
(
-1.33948429e-05
-1.23255172e-05
-1.13945111e-05
-1.05915821e-05
-9.88972915e-06
-9.27128418e-06
-8.7221359e-06
-8.23128926e-06
-7.789969e-06
-7.39107924e-06
-7.02882056e-06
-6.69840639e-06
-6.39585071e-06
-6.11780777e-06
-5.86144816e-06
-5.62436236e-06
-5.40448656e-06
-5.20004186e-06
-5.00948664e-06
-4.83147915e-06
-4.6648453e-06
-4.50855315e-06
-4.36169292e-06
-4.2234586e-06
-4.09313357e-06
-3.97007926e-06
-3.85372413e-06
-3.74355508e-06
-3.63911086e-06
-3.539975e-06
-3.44577055e-06
-3.3561561e-06
-3.27082112e-06
-3.18948251e-06
-3.11188225e-06
-3.03778413e-06
-2.96697146e-06
-2.89924569e-06
-2.83442394e-06
-2.77233783e-06
-2.71283175e-06
-2.65576224e-06
-2.60099631e-06
-2.54841052e-06
-2.49789064e-06
-2.4493303e-06
-2.40263036e-06
-2.35769874e-06
-2.31444939e-06
-2.27280177e-06
-2.23268087e-06
-2.19401632e-06
-2.15674202e-06
-2.12079628e-06
-2.08612099e-06
-2.05266142e-06
-2.02036634e-06
-1.98918737e-06
-1.95907881e-06
-1.92999776e-06
-1.90190363e-06
-1.87475793e-06
-1.84852451e-06
-1.82316898e-06
-1.79865888e-06
-1.77496326e-06
-1.75205302e-06
-1.72990041e-06
-1.70847895e-06
-1.68776373e-06
-1.66773092e-06
-1.64835773e-06
-1.62962269e-06
-1.61150523e-06
-1.59398563e-06
-1.57704528e-06
-1.56066631e-06
-1.54483156e-06
-1.52952483e-06
-1.51473052e-06
-1.50043362e-06
-1.48661994e-06
-1.47327581e-06
-1.46038801e-06
-1.44794409e-06
-1.43593197e-06
-1.42434e-06
-1.41315717e-06
-1.40237275e-06
-1.39197654e-06
-1.38195855e-06
-1.3723094e-06
-1.36301991e-06
-1.35408117e-06
-1.34548465e-06
-1.33722188e-06
-1.32928416e-06
-1.32166233e-06
-1.3143456e-06
-1.30731821e-06
)
;
    }
    outerWall
    {
        type            calculated;
        value           uniform 4.95195204e-09;
    }
    innerWall
    {
        type            calculated;
        value           uniform 0;
    }
    frontAndBack
    {
        type            empty;
        value           nonuniform List<scalar> 0();
    }
}


// ************************************************************************* //
