/*--------------------------------*- C++ -*----------------------------------*\
| =========                 |                                                 |
| \\      /  F ield         | OpenFOAM: The Open Source CFD Toolbox           |
|  \\    /   O peration     | Version:  2206                                  |
|   \\  /    A nd           | Website:  www.openfoam.com                      |
|    \\/     M anipulation  |                                                 |
\*---------------------------------------------------------------------------*/
FoamFile
{
    version     2.0;
    format      ascii;
    arch        "LSB;label=32;scalar=64";
    class       volVectorField;
    location    "2000";
    object      U;
}
// * * * * * * * * * * * * * * * * * * * * * * * * * * * * * * * * * * * * * //

dimensions      [0 1 -1 0 0 0 0];

internalField   nonuniform List<vector> 
100
(
(0.012189407 0.595326353 0)
(-0.00389581165 0.547800765 0)
(0.000895002253 0.506422715 0)
(-0.000166481233 0.470736981 0)
(5.72564938e-05 0.439543518 0)
(3.76294313e-05 0.412057075 0)
(5.20180252e-05 0.387650484 0)
(5.99120053e-05 0.365835077 0)
(6.6620841e-05 0.346220844 0)
(7.19926474e-05 0.328492411 7.34748846e-20)
(7.63385412e-05 0.312392025 -7.75717527e-20)
(7.98468282e-05 0.297706949 0)
(8.26722955e-05 0.284260033 0)
(8.4936874e-05 0.271902569 8.71238921e-20)
(8.67379458e-05 0.260508803 0)
(8.81539863e-05 0.249971662 0)
(8.92486521e-05 0.240199404 0)
(9.00740552e-05 0.231112968 0)
(9.06730132e-05 0.222643852 0)
(9.10810743e-05 0.214732408 0)
(9.13277451e-05 0.207326454 0)
(9.14377848e-05 0.200380141 0)
(9.14319067e-05 0.19385302 0)
(9.13276917e-05 0.187709268 0)
(9.11399431e-05 0.181917049 0)
(9.08813193e-05 0.176447968 0)
(9.05625134e-05 0.171276625 0)
(9.01927792e-05 0.166380227 0)
(8.97799557e-05 0.161738261 0)
(8.93308579e-05 0.15733222 0)
(8.8851259e-05 0.153145359 0)
(8.83462455e-05 0.149162494 0)
(8.78201202e-05 0.145369825 0)
(8.72766886e-05 0.141754779 0)
(8.67191549e-05 0.138305879 0)
(8.61503988e-05 0.135012626 0)
(8.5572834e-05 0.131865399 0)
(8.4988635e-05 0.128855365 0)
(8.43996038e-05 0.125974398 0)
(8.38074007e-05 0.123215013 0)
(8.32133877e-05 0.120570301 0)
(8.26188224e-05 0.118033878 0)
(8.20247164e-05 0.115599834 0)
(8.14320319e-05 0.113262691 0)
(8.08415287e-05 0.111017362 0)
(8.02539307e-05 0.108859123 0)
(7.96697927e-05 0.106783572 0)
(7.90896661e-05 0.104786611 0)
(7.85139568e-05 0.102864416 0)
(7.79430766e-05 0.101013413 0)
(7.7377315e-05 0.0992302614 0)
(7.68169733e-05 0.0975118347 0)
(7.62622497e-05 0.0958552016 0)
(7.57133614e-05 0.0942576129 0)
(7.51704453e-05 0.0927164869 0)
(7.46336452e-05 0.0912293969 0)
(7.4103038e-05 0.08979406 0)
(7.35787234e-05 0.0884083263 0)
(7.30607598e-05 0.0870701697 0)
(7.25491854e-05 0.0857776788 0)
(7.2044011e-05 0.084529049 0)
(7.15452526e-05 0.0833225753 0)
(7.10529329e-05 0.0821566453 0)
(7.05670153e-05 0.081029733 0)
(7.008748e-05 0.0799403934 0)
(6.96142914e-05 0.0788872567 0)
(6.91474591e-05 0.0778690237 7.20905958e-20)
(6.8686898e-05 0.0768844613 0)
(6.82325763e-05 0.0759323984 0)
(6.7784417e-05 0.0750117218 0)
(6.73424164e-05 0.0741213729 0)
(6.69064642e-05 0.073260344 6.87821362e-20)
(6.64765204e-05 0.0724276756 0)
(6.60524951e-05 0.0716224536 0)
(6.56343745e-05 0.0708438062 0)
(6.52220401e-05 0.0700909016 -6.62927579e-20)
(6.48154407e-05 0.0693629459 0)
(6.44144817e-05 0.0686591809 0)
(6.4019141e-05 0.0679788818 0)
(6.36292954e-05 0.0673213555 0)
(6.32448862e-05 0.0666859391 0)
(6.28658166e-05 0.0660719978 0)
(6.2492075e-05 0.0654789237 0)
(6.21235274e-05 0.0649061343 -6.17168273e-20)
(6.17601336e-05 0.0643530709 0)
(6.1401783e-05 0.0638191977 0)
(6.10484964e-05 0.0633040005 0)
(6.0700135e-05 0.0628069855 5.96183176e-20)
(6.03566196e-05 0.0623276783 0)
(6.00176155e-05 0.0618656228 0)
(5.96832557e-05 0.0614203805 0)
(5.93558289e-05 0.0609915291 5.76370063e-20)
(5.90400641e-05 0.0605786619 0)
(5.8723013e-05 0.0601813857 0)
(5.83262918e-05 0.0597993182 0)
(5.7787607e-05 0.0594320828 5.57658058e-20)
(5.77367902e-05 0.0590792964 0)
(6.03275861e-05 0.0587405483 0)
(6.44582966e-05 0.0584153591 0)
(4.67932462e-05 0.0581030317 0)
)
;

boundaryField
{
    left
    {
        type            wedge;
    }
    right
    {
        type            wedge;
    }
    outerWall
    {
        type            navierSlip;
        value           uniform (0 0.0579728093 0);
        slipLength      uniform 1;
        wallVelocity    uniform (0 0 0);
    }
    innerWall
    {
        type            rotatingWallVelocity;
        origin          (0 0 0);
        axis            (0 0 1);
        omega           constant 12.566;
        value           uniform (0 0.628204307 -0);
    }
    frontAndBack
    {
        type            empty;
    }
}


// ************************************************************************* //
