/*--------------------------------*- C++ -*----------------------------------*\
| =========                 |                                                 |
| \\      /  F ield         | OpenFOAM: The Open Source CFD Toolbox           |
|  \\    /   O peration     | Version:  2206                                  |
|   \\  /    A nd           | Website:  www.openfoam.com                      |
|    \\/     M anipulation  |                                                 |
\*---------------------------------------------------------------------------*/
FoamFile
{
    version     2.0;
    format      ascii;
    arch        "LSB;label=32;scalar=64";
    class       volScalarField;
    location    "380";
    object      p;
}
// * * * * * * * * * * * * * * * * * * * * * * * * * * * * * * * * * * * * * //

dimensions      [0 2 -2 0 0 0 0];

internalField   nonuniform List<scalar> 
100000
(
9.73771e-10
1.32926e-08
1.90293e-08
2.7896e-08
3.54374e-08
4.70856e-08
5.42186e-08
6.97205e-08
8.3153e-08
1.0382e-07
1.22337e-07
1.4056e-07
1.63877e-07
1.87734e-07
2.16501e-07
2.45419e-07
2.71848e-07
3.05567e-07
3.37556e-07
3.76922e-07
4.13689e-07
4.51059e-07
4.92243e-07
5.35702e-07
5.81943e-07
6.31493e-07
6.82259e-07
7.29861e-07
7.85113e-07
8.38644e-07
8.99211e-07
9.57899e-07
1.01599e-06
1.07962e-06
1.14327e-06
1.21253e-06
1.28108e-06
1.34807e-06
1.4214e-06
1.49408e-06
1.57293e-06
1.65059e-06
1.72711e-06
1.80962e-06
1.89177e-06
1.97985e-06
2.06693e-06
2.15271e-06
2.24464e-06
2.33605e-06
2.43354e-06
2.5299e-06
2.62509e-06
2.72629e-06
2.82712e-06
2.93386e-06
3.03965e-06
3.14408e-06
3.25475e-06
3.36476e-06
3.48103e-06
3.59595e-06
3.70997e-06
3.82968e-06
3.9494e-06
4.07458e-06
4.19935e-06
4.3221e-06
4.45189e-06
4.58006e-06
4.71566e-06
4.84849e-06
4.98212e-06
5.11941e-06
5.25914e-06
5.4015e-06
5.54732e-06
5.69418e-06
5.83806e-06
5.98949e-06
6.13923e-06
6.29603e-06
6.45088e-06
6.60522e-06
6.76506e-06
6.92493e-06
7.09042e-06
7.25515e-06
7.4184e-06
7.58794e-06
7.75685e-06
7.93194e-06
8.10581e-06
8.27856e-06
8.45733e-06
8.63568e-06
8.82004e-06
9.0033e-06
9.18537e-06
9.37348e-06
9.56119e-06
9.75486e-06
9.94752e-06
1.01389e-05
1.03364e-05
1.05333e-05
1.07365e-05
1.09383e-05
1.11393e-05
1.13459e-05
1.15525e-05
1.17646e-05
1.19762e-05
1.21859e-05
1.24026e-05
1.26177e-05
1.28402e-05
1.30599e-05
1.32805e-05
1.35046e-05
1.37313e-05
1.39605e-05
1.41933e-05
1.4427e-05
1.46578e-05
1.48962e-05
1.51328e-05
1.53765e-05
1.56183e-05
1.58596e-05
1.61063e-05
1.63531e-05
1.66055e-05
1.68571e-05
1.71073e-05
1.73637e-05
1.76196e-05
1.78816e-05
1.81423e-05
1.8402e-05
1.86677e-05
1.8933e-05
1.92042e-05
1.94744e-05
1.97434e-05
2.00184e-05
2.0293e-05
2.05737e-05
2.08531e-05
2.11315e-05
2.14159e-05
2.16998e-05
2.19898e-05
2.22787e-05
2.25663e-05
2.28601e-05
2.31533e-05
2.34527e-05
2.37508e-05
2.4048e-05
2.43509e-05
2.46537e-05
2.49621e-05
2.527e-05
2.55759e-05
2.58889e-05
2.62002e-05
2.6519e-05
2.6835e-05
2.71518e-05
2.74722e-05
2.77952e-05
2.81207e-05
2.84497e-05
2.87797e-05
2.91068e-05
2.94414e-05
2.97743e-05
3.01143e-05
3.04523e-05
3.07898e-05
3.11328e-05
3.14758e-05
3.18245e-05
3.21724e-05
3.25188e-05
3.28716e-05
3.32236e-05
3.35819e-05
3.39389e-05
3.42949e-05
3.46568e-05
3.50183e-05
3.53859e-05
3.57523e-05
3.61176e-05
3.64889e-05
3.68598e-05
3.72366e-05
3.76124e-05
3.7987e-05
3.83677e-05
3.87478e-05
3.91342e-05
3.95191e-05
3.99033e-05
4.0293e-05
4.06829e-05
4.10781e-05
4.1473e-05
4.18658e-05
4.22657e-05
4.26639e-05
4.30697e-05
4.34725e-05
4.38763e-05
4.42836e-05
4.46935e-05
4.51059e-05
4.55219e-05
4.59388e-05
4.63528e-05
4.67743e-05
4.71941e-05
4.7621e-05
4.80459e-05
4.84704e-05
4.89003e-05
4.93303e-05
4.97659e-05
5.02007e-05
5.0634e-05
5.10737e-05
5.15127e-05
5.19579e-05
5.24018e-05
5.28447e-05
5.32935e-05
5.3742e-05
5.41965e-05
5.46498e-05
5.5102e-05
5.55602e-05
5.6018e-05
5.64818e-05
5.69445e-05
5.7406e-05
5.78736e-05
5.83408e-05
5.88139e-05
5.9286e-05
5.97568e-05
6.02338e-05
6.07101e-05
6.11928e-05
6.1674e-05
6.21544e-05
6.26404e-05
6.31265e-05
6.36181e-05
6.41092e-05
6.45983e-05
6.50944e-05
6.55889e-05
6.60909e-05
6.65901e-05
6.70901e-05
6.75937e-05
6.80998e-05
6.86085e-05
6.91207e-05
6.96339e-05
7.01442e-05
7.0662e-05
7.11781e-05
7.17012e-05
7.22224e-05
7.27431e-05
7.32693e-05
7.37956e-05
7.43274e-05
7.48585e-05
7.53881e-05
7.5924e-05
7.64593e-05
7.70008e-05
7.7541e-05
7.80801e-05
7.86253e-05
7.917e-05
7.97207e-05
8.02703e-05
8.08188e-05
8.13733e-05
8.19273e-05
8.24874e-05
8.30464e-05
8.36041e-05
8.4168e-05
8.47313e-05
8.53009e-05
8.5869e-05
8.64364e-05
8.70093e-05
8.75823e-05
8.81608e-05
8.87388e-05
8.93148e-05
8.98979e-05
9.04794e-05
9.10683e-05
9.16543e-05
9.22413e-05
9.28318e-05
9.34249e-05
9.40205e-05
9.46196e-05
9.52197e-05
9.58169e-05
9.64216e-05
9.70246e-05
9.76347e-05
9.82428e-05
9.88505e-05
9.94636e-05
0.000100077
0.000100696
0.000101314
0.00010193
0.000102553
0.000103175
0.000103804
0.000104431
0.000105057
0.000105689
0.00010632
0.000106958
0.000107595
0.00010823
0.000108871
0.000109512
0.000110159
0.000110805
0.00011145
0.000112101
0.000112751
0.000113407
0.000114063
0.000114717
0.000115377
0.000116036
0.000116702
0.000117367
0.00011803
0.000118699
0.000119369
0.000120043
0.000120718
0.00012139
0.000122069
0.000122747
0.000123432
0.000124115
0.000124798
0.000125485
0.000126174
0.000126866
0.000127561
0.000128258
0.000128951
0.000129652
0.000130351
0.000131058
0.000131762
0.000132466
0.000133175
0.000133885
0.0001346
0.000135314
0.000136027
0.000136746
0.000137465
0.000138189
0.000138913
0.000139635
0.000140363
0.000141091
0.000141825
0.000142558
0.00014329
0.000144027
0.000144764
0.000145508
0.00014625
0.000146991
0.000147738
0.000148484
0.000149237
0.000149989
0.000150739
0.000151495
0.000152251
0.000153013
0.000153774
0.000154533
0.0001553
0.000156064
0.000156836
0.000157606
0.000158376
0.00015915
0.000159926
0.000160705
0.000161487
0.00016227
0.000163051
0.000163839
0.000164625
0.000165418
0.000166209
0.000167
0.000167797
0.000168593
0.000169395
0.000170196
0.000170996
0.000171802
0.000172607
0.000173419
0.000174229
0.000175038
0.000175854
0.000176668
0.000177489
0.000178309
0.000179128
0.000179952
0.000180776
0.000181607
0.000182436
0.000183264
0.000184097
0.000184931
0.000185771
0.000186609
0.000187446
0.00018829
0.000189132
0.000189981
0.000190829
0.000191676
0.000192528
0.000193381
0.000194239
0.000195096
0.000195952
0.000196814
0.000197675
0.000198543
0.000199409
0.000200275
0.000201145
0.000202018
0.000202893
0.000203771
0.000204651
0.000205528
0.000206412
0.000207294
0.000208184
0.000209071
0.000209959
0.000210851
0.000211744
0.000212642
0.00021354
0.000214436
0.000215338
0.000216239
0.000217147
0.000218054
0.000218959
0.000219871
0.000220782
0.000221699
0.000222615
0.00022353
0.000224451
0.000225371
0.000226298
0.000227223
0.000228147
0.000229078
0.000230007
0.000230943
0.000231878
0.000232811
0.000233751
0.00023469
0.000235635
0.000236579
0.000237522
0.000238471
0.000239419
0.000240374
0.000241327
0.00024228
0.000243237
0.000244197
0.000245159
0.000246124
0.000247091
0.000248054
0.000249025
0.000249995
0.000250971
0.000251946
0.00025292
0.000253899
0.000254879
0.000255864
0.000256848
0.000257831
0.00025882
0.000259809
0.000260804
0.000261797
0.00026279
0.000263788
0.000264786
0.00026579
0.000266793
0.000267795
0.000268803
0.00026981
0.000270824
0.000271836
0.000272847
0.000273864
0.000274881
0.000275903
0.000276925
0.000277946
0.000278972
0.000279998
0.00028103
0.000282061
0.000283091
0.000284127
0.000285162
0.000286203
0.000287244
0.000288283
0.000289329
0.000290373
0.000291424
0.000292473
0.000293523
0.000294576
0.000295631
0.00029669
0.000297752
0.000298814
0.000299874
0.000300941
0.000302007
0.00030308
0.000304151
0.000305221
0.000306297
0.000307373
0.000308454
0.000309535
0.000310614
0.000311699
0.000312784
0.000313875
0.000314965
0.000316054
0.000317149
0.000318243
0.000319343
0.000320442
0.00032154
0.000322644
0.000323748
0.000324858
0.000325966
0.000327074
0.000328187
0.0003293
0.000330419
0.000331537
0.000332654
0.000333776
0.000334899
0.000336027
0.000337155
0.00033828
0.000339413
0.000340544
0.000341682
0.000342818
0.000343954
0.000345095
0.000346237
0.000347382
0.000348531
0.000349681
0.000350828
0.000351982
0.000353134
0.000354294
0.000355452
0.000356609
0.000357772
0.000358934
0.000360103
0.00036127
0.000362437
0.000363609
0.000364781
0.000365959
0.000367135
0.000368311
0.000369493
0.000370674
0.000371861
0.000373047
0.000374232
0.000375423
0.000376614
0.00037781
0.000379006
0.0003802
0.0003814
0.0003826
0.000383806
0.000385011
0.000386215
0.000387425
0.000388634
0.000389849
0.000391063
0.000392276
0.000393495
0.000394714
0.000395938
0.000397162
0.000398384
0.000399613
0.00040084
0.000402075
0.000403307
0.00040454
0.000405776
0.000407015
0.000408256
0.000409501
0.000410747
0.00041199
0.000413241
0.00041449
0.000415746
0.000417
0.000418253
0.000419512
0.000420771
0.000422036
0.0004233
0.000424562
0.000425831
0.000427099
0.000428373
0.000429646
0.000430918
0.000432196
0.000433473
0.000434757
0.000436039
0.000437321
0.000438608
0.000439895
0.000441187
0.000442479
0.00044377
0.000445066
0.000446363
0.000447665
0.000448966
0.000450266
0.000451572
0.000452877
0.000454189
0.000455499
0.000456808
0.000458124
0.000459438
0.00046076
0.000462079
0.000463399
0.000464722
0.000466048
0.000467376
0.000468708
0.000470041
0.000471371
0.000472708
0.000474044
0.000475387
0.000476728
0.000478068
0.000479414
0.00048076
0.000482112
0.000483462
0.000484812
0.000486167
0.000487522
0.000488884
0.000490243
0.000491602
0.000492967
0.000494332
0.000495702
0.000497071
0.000498439
0.000499814
0.000501187
0.000502567
0.000503946
0.000505323
0.000506707
0.00050809
0.000509479
0.000510867
0.000512254
0.000513647
0.000515039
0.000516438
0.000517835
0.000519231
0.000520633
0.000522035
0.000523443
0.00052485
0.000526255
0.000527667
0.000529078
0.000530496
0.000531911
0.000533327
0.000534746
0.000536168
0.000537593
0.000539021
0.00054045
0.000541877
0.00054331
0.000544742
0.000546182
0.000547619
0.000549055
0.000550498
0.00055194
0.000553388
0.000554835
0.00055628
0.000557732
0.000559183
0.000560641
0.000562097
0.000563552
0.000565013
0.000566474
0.000567941
0.000569406
0.000570871
0.000572341
0.000573811
0.000575287
0.000576762
0.000578236
0.000579716
0.000581195
0.000582681
0.000584165
0.000585648
0.000587137
0.000588626
0.00059012
0.000591614
0.000593106
0.000594605
0.000596103
0.000597608
0.00059911
0.000600613
0.000602119
0.000603628
0.00060514
0.000606655
0.000608171
0.000609684
0.000611205
0.000612724
0.00061425
0.000615774
0.000617297
0.000618827
0.000620356
0.00062189
0.000623424
0.000624957
0.000626496
0.000628034
0.000629578
0.000631121
0.000632663
0.000634211
0.000635759
0.000637313
0.000638865
0.000640416
0.000641974
0.000643531
0.000645094
0.000646656
0.000648216
0.000649783
0.000651349
0.000652922
0.000654493
0.000656063
0.000657639
0.000659215
0.000660796
0.000662377
0.000663956
0.000665542
0.000667127
0.000668718
0.000670308
0.000671896
0.000673491
0.000675085
0.000676686
0.000678284
0.000679884
0.000681486
0.000683092
0.0006847
0.000686311
0.000687923
0.000689533
0.00069115
0.000692765
0.000694387
0.000696008
0.000697628
0.000699253
0.000700878
0.000702509
0.00070414
0.000705768
0.000707403
0.000709038
0.000710679
0.000712318
0.000713956
0.0007156
0.000717244
0.000718894
0.000720543
0.000722191
0.000723844
0.000725498
0.000727157
0.000728815
0.000730472
0.000732135
0.000733797
0.000735466
0.000737133
0.0007388
0.000740472
0.000742144
0.000743822
0.000745499
0.000747174
0.000748856
0.000750537
0.000752225
0.00075391
0.000755596
0.000757286
0.000758978
0.000760673
0.000762371
0.000764071
0.000765767
0.000767471
0.000769173
0.000770882
0.00077259
0.000774297
0.000776009
0.000777721
0.000779439
0.000781156
0.000782872
0.000784594
0.000786315
0.000788043
0.000789769
0.000791494
0.000793226
0.000794956
0.000796693
0.000798429
0.000800163
0.000801904
0.000803644
0.00080539
0.000807135
0.000808879
0.000810629
0.000812379
0.000814134
0.000815889
0.000817642
0.000819401
0.00082116
0.000822925
0.000824688
0.000826451
0.00082822
0.000829988
0.000831762
0.000833535
0.000835307
0.000837085
0.000838862
0.000840647
0.000842428
0.000844211
0.000845997
0.000847785
0.000849576
0.000851371
0.000853166
0.000854959
0.000856759
0.000858557
0.000860363
0.000862166
0.00086397
0.000865778
0.000867587
0.000869401
0.000871214
0.000873026
0.000874845
0.000876662
0.000878486
0.000880309
0.00088213
0.000883958
0.000885785
0.000887618
0.00088945
0.000891281
0.000893117
0.000894954
0.000896796
0.000898638
0.000900478
0.000902324
0.00090417
0.000906022
0.000907872
0.000909722
0.000911577
0.000913432
0.000915293
0.000917154
0.000919012
0.000920878
0.000922741
0.000924613
0.000926481
0.00092835
0.000930223
0.000932099
0.000933977
0.000935858
0.000937741
0.00093962
0.000941507
0.000943393
0.000945285
0.000947175
0.000949065
0.000950961
0.000952856
0.000954758
0.000956658
0.000958557
0.000960462
0.000962367
0.000964277
0.000966187
0.000968095
0.00097001
0.000971924
0.000973844
0.000975763
0.00097768
0.000979604
0.000981527
0.000983457
0.000985385
0.000987312
0.000989245
0.000991178
0.000993117
0.000995054
0.000996991
0.000998933
0.00100088
0.00100282
0.00100477
0.00100672
0.00100867
0.00101062
0.00101258
0.00101453
0.00101649
0.00101845
0.00102041
0.00102238
0.00102434
0.00102631
0.00102828
0.00103025
0.00103222
0.0010342
0.00103618
0.00103815
0.00104014
0.00104212
0.00104411
0.0010461
0.00104808
0.00105007
0.00105207
0.00105406
0.00105606
0.00105805
0.00106006
0.00106206
0.00106406
0.00106607
0.00106807
0.00107008
0.0010721
0.00107411
0.00107613
0.00107814
0.00108016
0.00108218
0.00108421
0.00108623
0.00108825
0.00109028
0.00109231
0.00109435
0.00109638
0.00109841
0.00110045
0.00110249
0.00110453
0.00110658
0.00110862
0.00111067
0.00111272
0.00111477
0.00111682
0.00111887
0.00112093
0.00112299
0.00112505
0.00112711
0.00112918
0.00113124
0.00113331
0.00113538
0.00113746
0.00113953
0.0011416
0.00114368
0.00114576
0.00114785
0.00114993
0.00115201
0.0011541
0.00115619
0.00115828
0.00116037
0.00116247
0.00116456
0.00116666
0.00116876
0.00117087
0.00117297
0.00117507
0.00117718
0.00117929
0.0011814
0.00118352
0.00118563
0.00118775
0.00118987
0.00119199
0.00119411
0.00119624
0.00119836
0.00120049
0.00120262
0.00120475
0.00120689
0.00120902
0.00121116
0.0012133
0.00121544
0.00121758
0.00121973
0.00122188
0.00122403
0.00122617
0.00122833
0.00123048
0.00123264
0.0012348
0.00123696
0.00123912
0.00124129
0.00124345
0.00124562
0.00124779
0.00124996
0.00125214
0.00125431
0.00125649
0.00125867
0.00126085
0.00126304
0.00126522
0.00126741
0.0012696
0.00127179
0.00127398
0.00127618
0.00127837
0.00128057
0.00128277
0.00128497
0.00128718
0.00128939
0.00129159
0.0012938
0.00129601
0.00129822
0.00130044
0.00130266
0.00130488
0.0013071
0.00130932
0.00131155
0.00131377
0.001316
0.00131823
0.00132046
0.0013227
0.00132493
0.00132717
0.00132941
0.00133165
0.00133389
0.00133614
0.00133839
0.00134064
0.00134289
0.00134514
0.0013474
0.00134966
0.00135191
0.00135418
0.00135644
0.0013587
0.00136097
0.00136324
0.00136551
0.00136778
0.00137006
0.00137233
0.00137461
0.00137689
0.00137917
0.00138145
0.00138374
0.00138602
0.00138831
0.0013906
0.0013929
0.00139519
0.00139749
0.00139979
0.00140209
0.00140439
0.0014067
0.001409
0.00141131
0.00141362
0.00141593
0.00141824
0.00142056
0.00142287
0.00142519
0.00142752
0.00142984
0.00143216
0.00143449
0.00143681
0.00143915
0.00144148
0.00144381
0.00144615
0.00144848
0.00145083
0.00145317
0.00145551
0.00145786
0.00146021
0.00146255
0.00146491
0.00146726
0.00146962
0.00147197
0.00147433
0.0014767
0.00147906
0.00148142
0.00148379
0.00148616
0.00148853
0.0014909
0.00149327
0.00149565
0.00149803
0.00150041
0.00150279
0.00150517
0.00150756
0.00150994
0.00151233
0.00151473
0.00151712
0.00151951
0.00152191
0.00152431
0.00152671
0.00152911
0.00153151
0.00153392
0.00153633
0.00153874
0.00154115
0.00154356
0.00154597
0.00154839
0.00155081
0.00155323
0.00155565
0.00155808
0.00156051
0.00156294
0.00156537
0.0015678
0.00157024
0.00157267
0.00157511
0.00157755
0.00157999
0.00158244
0.00158488
0.00158733
0.00158978
0.00159223
0.00159469
0.00159714
0.0015996
0.00160206
0.00160452
0.00160698
0.00160945
0.00161192
0.00161438
0.00161685
0.00161932
0.0016218
0.00162428
0.00162675
0.00162923
0.00163171
0.0016342
0.00163668
0.00163917
0.00164166
0.00164415
0.00164664
0.00164914
0.00165163
0.00165413
0.00165663
0.00165913
0.00166164
0.00166415
0.00166665
0.00166916
0.00167167
0.00167419
0.0016767
0.00167922
0.00168174
0.00168426
0.00168678
0.00168931
0.00169184
0.00169436
0.0016969
0.00169943
0.00170196
0.0017045
0.00170704
0.00170958
0.00171212
0.00171467
0.00171721
0.00171976
0.00172231
0.00172486
0.00172742
0.00172997
0.00173253
0.00173509
0.00173765
0.00174021
0.00174278
0.00174534
0.00174791
0.00175048
0.00175305
0.00175563
0.0017582
0.00176078
0.00176336
0.00176594
0.00176853
0.00177111
0.0017737
0.00177629
0.00177888
0.00178147
0.00178406
0.00178666
0.00178926
0.00179186
0.00179446
0.00179707
0.00179967
0.00180228
0.00180489
0.0018075
0.00181012
0.00181273
0.00181535
0.00181797
0.00182059
0.00182322
0.00182584
0.00182847
0.0018311
0.00183373
0.00183636
0.001839
0.00184163
0.00184427
0.00184692
0.00184956
0.0018522
0.00185485
0.00185749
0.00186015
0.0018628
0.00186545
0.0018681
0.00187076
0.00187342
0.00187608
0.00187874
0.00188141
0.00188407
0.00188675
0.00188942
0.00189209
0.00189476
0.00189744
0.00190012
0.0019028
0.00190547
0.00190816
0.00191084
0.00191353
0.00191622
0.00191891
0.00192161
0.0019243
0.001927
0.0019297
0.00193239
0.0019351
0.0019378
0.00194051
0.00194322
0.00194593
0.00194864
0.00195135
0.00195407
0.00195679
0.00195951
0.00196223
0.00196495
0.00196768
0.00197041
0.00197314
0.00197587
0.0019786
0.00198133
0.00198407
0.00198681
0.00198955
0.00199229
0.00199504
0.00199778
0.00200053
0.00200328
0.00200603
0.00200878
0.00201154
0.0020143
0.00201706
0.00201982
0.00202258
0.00202535
0.00202811
0.00203088
0.00203365
0.00203642
0.0020392
0.00204198
0.00204475
0.00204753
0.00205031
0.0020531
0.00205588
0.00205867
0.00206146
0.00206425
0.00206704
0.00206984
0.00207264
0.00207543
0.00207824
0.00208104
0.00208385
0.00208665
0.00208946
0.00209227
0.00209508
0.0020979
0.00210072
0.00210353
0.00210635
0.00210917
0.002112
0.00211482
0.00211765
0.00212048
0.00212331
0.00212615
0.00212898
0.00213181
0.00213465
0.00213749
0.00214034
0.00214318
0.00214603
0.00214887
0.00215172
0.00215458
0.00215743
0.00216028
0.00216314
0.002166
0.00216886
0.00217173
0.00217459
0.00217746
0.00218032
0.0021832
0.00218607
0.00218894
0.00219182
0.00219469
0.00219758
0.00220046
0.00220334
0.00220623
0.00220911
0.002212
0.0022149
0.00221779
0.00222068
0.00222358
0.00222648
0.00222939
0.00223229
0.00223519
0.0022381
0.00224101
0.00224392
0.00224683
0.00224974
0.00225266
0.00225558
0.0022585
0.00226142
0.00226434
0.00226727
0.0022702
0.00227313
0.00227606
0.00227899
0.00228193
0.00228486
0.0022878
0.00229074
0.00229368
0.00229663
0.00229957
0.00230252
0.00230547
0.00230842
0.00231138
0.00231433
0.00231729
0.00232025
0.00232321
0.00232617
0.00232914
0.00233211
0.00233507
0.00233804
0.00234102
0.00234399
0.00234697
0.00234994
0.00235292
0.0023559
0.00235889
0.00236187
0.00236486
0.00236786
0.00237084
0.00237384
0.00237683
0.00237983
0.00238283
0.00238583
0.00238884
0.00239184
0.00239485
0.00239786
0.00240087
0.00240388
0.00240689
0.00240991
0.00241293
0.00241595
0.00241897
0.00242199
0.00242502
0.00242805
0.00243107
0.00243411
0.00243714
0.00244018
0.00244321
0.00244625
0.00244929
0.00245233
0.00245538
0.00245842
0.00246147
0.00246452
0.00246757
0.00247063
0.00247368
0.00247674
0.0024798
0.00248286
0.00248592
0.00248899
0.00249205
0.00249512
0.00249819
0.00250126
0.00250434
0.00250742
0.00251049
0.00251358
0.00251666
0.00251975
0.00252283
0.00252592
0.00252901
0.0025321
0.0025352
0.00253829
0.00254139
0.00254449
0.00254759
0.00255069
0.0025538
0.0025569
0.00256001
0.00256312
0.00256624
0.00256935
0.00257246
0.00257558
0.0025787
0.00258183
0.00258495
0.00258807
0.0025912
0.00259433
0.00259746
0.0026006
0.00260373
0.00260687
0.00261
0.00261315
0.00261629
0.00261943
0.00262258
0.00262573
0.00262888
0.00263203
0.00263518
0.00263834
0.00264149
0.00264466
0.00264782
0.00265098
0.00265414
0.00265731
0.00266048
0.00266365
0.00266683
0.00267
0.00267318
0.00267635
0.00267954
0.00268272
0.0026859
0.00268909
0.00269228
0.00269547
0.00269866
0.00270185
0.00270505
0.00270824
0.00271145
0.00271465
0.00271785
0.00272105
0.00272426
0.00272747
0.00273068
0.00273389
0.00273711
0.00274032
0.00274354
0.00274676
0.00274998
0.00275321
0.00275643
0.00275966
0.00276289
0.00276612
0.00276935
0.00277259
0.00277583
0.00277907
0.0027823
0.00278555
0.00278879
0.00279204
0.00279529
0.00279853
0.00280179
0.00280504
0.0028083
0.00281156
0.00281482
0.00281808
0.00282134
0.00282461
0.00282788
0.00283115
0.00283441
0.00283769
0.00284096
0.00284424
0.00284752
0.0028508
0.00285408
0.00285737
0.00286066
0.00286394
0.00286723
0.00287052
0.00287382
0.00287711
0.00288041
0.00288371
0.00288701
0.00289031
0.00289362
0.00289693
0.00290023
0.00290355
0.00290686
0.00291017
0.00291349
0.00291681
0.00292013
0.00292345
0.00292677
0.0029301
0.00293342
0.00293675
0.00294008
0.00294342
0.00294676
0.00295009
0.00295343
0.00295677
0.00296011
0.00296346
0.0029668
0.00297015
0.0029735
0.00297685
0.00298021
0.00298357
0.00298692
0.00299028
0.00299364
0.00299701
0.00300038
0.00300374
0.00300711
0.00301048
0.00301386
0.00301723
0.00302061
0.00302399
0.00302737
0.00303075
0.00303414
0.00303752
0.00304091
0.0030443
0.00304769
0.00305109
0.00305448
0.00305788
0.00306128
0.00306468
0.00306808
0.00307149
0.00307489
0.0030783
0.00308172
0.00308513
0.00308854
0.00309196
0.00309537
0.0030988
0.00310222
0.00310564
0.00310907
0.00311249
0.00311592
0.00311935
0.00312279
0.00312622
0.00312966
0.0031331
0.00313654
0.00313999
0.00314343
0.00314688
0.00315032
0.00315378
0.00315723
0.00316068
0.00316414
0.0031676
0.00317106
0.00317452
0.00317798
0.00318145
0.00318492
0.00318839
0.00319186
0.00319533
0.00319881
0.00320228
0.00320576
0.00320924
0.00321272
0.00321621
0.00321969
0.00322319
0.00322668
0.00323016
0.00323366
0.00323715
0.00324065
0.00324415
0.00324765
0.00325116
0.00325466
0.00325817
0.00326168
0.00326519
0.0032687
0.00327221
0.00327573
0.00327925
0.00328277
0.00328629
0.00328981
0.00329334
0.00329687
0.0033004
0.00330393
0.00330746
0.003311
0.00331454
0.00331808
0.00332161
0.00332516
0.0033287
0.00333225
0.0033358
0.00333935
0.0033429
0.00334646
0.00335002
0.00335358
0.00335713
0.0033607
0.00336426
0.00336783
0.0033714
0.00337496
0.00337853
0.00338211
0.00338568
0.00338926
0.00339284
0.00339642
0.0034
0.00340359
0.00340717
0.00341076
0.00341435
0.00341794
0.00342154
0.00342513
0.00342873
0.00343233
0.00343593
0.00343954
0.00344314
0.00344674
0.00345035
0.00345396
0.00345758
0.00346119
0.00346481
0.00346843
0.00347205
0.00347567
0.0034793
0.00348292
0.00348655
0.00349018
0.00349381
0.00349745
0.00350108
0.00350472
0.00350836
0.003512
0.00351565
0.00351929
0.00352293
0.00352658
0.00353023
0.00353389
0.00353754
0.0035412
0.00354486
0.00354852
0.00355218
0.00355585
0.00355951
0.00356318
0.00356685
0.00357052
0.00357419
0.00357787
0.00358154
0.00358522
0.0035889
0.00359259
0.00359627
0.00359996
0.00360364
0.00360734
0.00361103
0.00361472
0.00361842
0.00362211
0.00362581
0.00362952
0.00363322
0.00363692
0.00364063
0.00364434
0.00364805
0.00365176
0.00365548
0.00365919
0.00366291
0.00366663
0.00367036
0.00367408
0.00367781
0.00368153
0.00368527
0.003689
0.00369273
0.00369647
0.0037002
0.00370395
0.00370769
0.00371143
0.00371517
0.00371892
0.00372267
0.00372642
0.00373017
0.00373393
0.00373768
0.00374145
0.00374521
0.00374896
0.00375273
0.00375649
0.00376027
0.00376403
0.0037678
0.00377158
0.00377535
0.00377913
0.00378291
0.00378669
0.00379047
0.00379426
0.00379804
0.00380183
0.00380562
0.00380941
0.00381321
0.00381701
0.0038208
0.0038246
0.0038284
0.0038322
0.00383601
0.00383982
0.00384363
0.00384744
0.00385125
0.00385507
0.00385889
0.00386271
0.00386652
0.00387035
0.00387417
0.003878
0.00388183
0.00388566
0.00388949
0.00389332
0.00389716
0.003901
0.00390484
0.00390868
0.00391252
0.00391637
0.00392022
0.00392406
0.00392792
0.00393177
0.00393562
0.00393948
0.00394334
0.0039472
0.00395106
0.00395493
0.00395879
0.00396266
0.00396653
0.0039704
0.00397427
0.00397815
0.00398202
0.0039859
0.00398978
0.00399367
0.00399755
0.00400143
0.00400532
0.00400921
0.00401311
0.004017
0.0040209
0.00402479
0.00402869
0.0040326
0.0040365
0.00404041
0.00404431
0.00404822
0.00405213
0.00405605
0.00405997
0.00406388
0.0040678
0.00407172
0.00407565
0.00407957
0.00408349
0.00408742
0.00409135
0.00409529
0.00409922
0.00410316
0.00410709
0.00411103
0.00411498
0.00411892
0.00412286
0.00412681
0.00413076
0.00413471
0.00413867
0.00414262
0.00414657
0.00415053
0.0041545
0.00415846
0.00416242
0.00416638
0.00417035
0.00417432
0.0041783
0.00418227
0.00418624
0.00419022
0.0041942
0.00419818
0.00420216
0.00420615
0.00421013
0.00421412
0.00421811
0.00422211
0.0042261
0.0042301
0.00423409
0.0042381
0.0042421
0.0042461
0.00425011
0.00425412
0.00425813
0.00426214
0.00426615
0.00427017
0.00427418
0.0042782
0.00428223
0.00428625
0.00429027
0.0042943
0.00429833
0.00430236
0.00430639
0.00431042
0.00431446
0.0043185
0.00432254
0.00432658
0.00433062
0.00433467
0.00433872
0.00434276
0.00434681
0.00435087
0.00435492
0.00435898
0.00436304
0.00436709
0.00437116
0.00437522
0.00437929
0.00438336
0.00438742
0.0043915
0.00439557
0.00439965
0.00440372
0.0044078
0.00441188
0.00441596
0.00442005
0.00442414
0.00442823
0.00443232
0.00443641
0.0044405
0.0044446
0.0044487
0.0044528
0.0044569
0.00446101
0.00446512
0.00446922
0.00447333
0.00447744
0.00448156
0.00448567
0.00448979
0.00449391
0.00449803
0.00450215
0.00450628
0.0045104
0.00451453
0.00451866
0.00452279
0.00452693
0.00453107
0.0045352
0.00453934
0.00454348
0.00454763
0.00455177
0.00455592
0.00456007
0.00456422
0.00456837
0.00457253
0.00457668
0.00458084
0.004585
0.00458917
0.00459333
0.00459749
0.00460166
0.00460583
0.00461
0.00461418
0.00461836
0.00462253
0.00462671
0.00463089
0.00463508
0.00463926
0.00464345
0.00464764
0.00465183
0.00465602
0.00466022
0.00466441
0.00466861
0.00467281
0.00467702
0.00468122
0.00468542
0.00468963
0.00469384
0.00469806
0.00470227
0.00470648
0.0047107
0.00471492
0.00471914
0.00472337
0.00472759
0.00473182
0.00473604
0.00474028
0.00474451
0.00474874
0.00475298
0.00475721
0.00476146
0.0047657
0.00476994
0.00477418
0.00477843
0.00478268
0.00478693
0.00479118
0.00479544
0.00479969
0.00480396
0.00480821
0.00481247
0.00481674
0.004821
0.00482527
0.00482955
0.00483382
0.00483809
0.00484237
0.00484664
0.00485093
0.00485521
0.00485949
0.00486378
0.00486806
0.00487235
0.00487665
0.00488094
0.00488523
0.00488953
0.00489383
0.00489813
0.00490243
0.00490673
0.00491104
0.00491535
0.00491966
0.00492397
0.00492828
0.0049326
0.00493692
0.00494124
0.00494555
0.00494988
0.0049542
0.00495853
0.00496286
0.00496719
0.00497152
0.00497585
0.00498019
0.00498453
0.00498887
0.00499321
0.00499755
0.0050019
0.00500625
0.00501059
0.00501494
0.0050193
0.00502365
0.00502801
0.00503237
0.00503673
0.0050411
0.00504546
0.00504983
0.0050542
0.00505857
0.00506294
0.00506731
0.00507169
0.00507607
0.00508045
0.00508483
0.00508921
0.0050936
0.00509799
0.00510237
0.00510677
0.00511116
0.00511555
0.00511995
0.00512435
0.00512875
0.00513315
0.00513756
0.00514196
0.00514637
0.00515078
0.00515519
0.00515961
0.00516402
0.00516844
0.00517286
0.00517728
0.0051817
0.00518613
0.00519055
0.00519498
0.00519941
0.00520384
0.00520828
0.00521271
0.00521715
0.00522159
0.00522603
0.00523048
0.00523492
0.00523937
0.00524382
0.00524827
0.00525272
0.00525718
0.00526163
0.00526609
0.00527055
0.00527502
0.00527949
0.00528395
0.00528842
0.00529289
0.00529736
0.00530184
0.00530631
0.00531079
0.00531527
0.00531975
0.00532424
0.00532872
0.00533321
0.0053377
0.00534219
0.00534668
0.00535118
0.00535567
0.00536017
0.00536467
0.00536918
0.00537368
0.00537819
0.00538269
0.0053872
0.00539172
0.00539623
0.00540074
0.00540526
0.00540978
0.0054143
0.00541882
0.00542335
0.00542787
0.00543241
0.00543694
0.00544147
0.005446
0.00545054
0.00545507
0.00545962
0.00546416
0.0054687
0.00547325
0.0054778
0.00548235
0.0054869
0.00549145
0.00549601
0.00550056
0.00550513
0.00550969
0.00551425
0.00551881
0.00552338
0.00552795
0.00553252
0.00553709
0.00554167
0.00554624
0.00555082
0.0055554
0.00555998
0.00556457
0.00556915
0.00557374
0.00557833
0.00558292
0.00558751
0.00559211
0.00559671
0.0056013
0.0056059
0.00561051
0.00561511
0.00561972
0.00562433
0.00562893
0.00563355
0.00563816
0.00564278
0.00564739
0.00565201
0.00565663
0.00566125
0.00566588
0.00567051
0.00567513
0.00567976
0.0056844
0.00568903
0.00569367
0.00569831
0.00570295
0.00570759
0.00571223
0.00571688
0.00572153
0.00572618
0.00573083
0.00573548
0.00574014
0.0057448
0.00574946
0.00575412
0.00575878
0.00576345
0.00576812
0.00577278
0.00577745
0.00578212
0.0057868
0.00579148
0.00579615
0.00580083
0.00580551
0.0058102
0.00581489
0.00581957
0.00582426
0.00582895
0.00583365
0.00583834
0.00584304
0.00584774
0.00585244
0.00585714
0.00586185
0.00586655
0.00587126
0.00587597
0.00588068
0.00588539
0.00589011
0.00589482
0.00589954
0.00590427
0.00590899
0.00591372
0.00591844
0.00592317
0.0059279
0.00593264
0.00593737
0.00594211
0.00594685
0.00595159
0.00595633
0.00596108
0.00596582
0.00597057
0.00597532
0.00598007
0.00598483
0.00598958
0.00599434
0.0059991
0.00600386
0.00600862
0.00601339
0.00601815
0.00602292
0.0060277
0.00603247
0.00603724
0.00604202
0.00604679
0.00605158
0.00605636
0.00606114
0.00606593
0.00607071
0.0060755
0.0060803
0.00608508
0.00608988
0.00609468
0.00609948
0.00610428
0.00610908
0.00611388
0.00611869
0.0061235
0.00612831
0.00613312
0.00613794
0.00614275
0.00614757
0.00615239
0.00615721
0.00616204
0.00616686
0.00617169
0.00617652
0.00618135
0.00618618
0.00619102
0.00619586
0.0062007
0.00620554
0.00621038
0.00621522
0.00622007
0.00622492
0.00622977
0.00623462
0.00623947
0.00624433
0.00624919
0.00625405
0.00625891
0.00626377
0.00626863
0.0062735
0.00627837
0.00628324