/*--------------------------------*- C++ -*----------------------------------*\
| =========                 |                                                 |
| \\      /  F ield         | OpenFOAM: The Open Source CFD Toolbox           |
|  \\    /   O peration     | Version:  2206                                  |
|   \\  /    A nd           | Website:  www.openfoam.com                      |
|    \\/     M anipulation  |                                                 |
\*---------------------------------------------------------------------------*/
FoamFile
{
    version     2.0;
    format      ascii;
    arch        "LSB;label=32;scalar=64";
    class       volVectorField;
    location    "380";
    object      U;
}
// * * * * * * * * * * * * * * * * * * * * * * * * * * * * * * * * * * * * * //

dimensions      [0 1 -1 0 0 0 0];

internalField   nonuniform List<vector> 
100000
(
(-6.33467e-12 6.46555e-06 -8.05993e-13)
(-5.71563e-12 1.20593e-05 7.52871e-14)
(-8.69666e-12 2.19863e-05 1.4581e-13)
(-1.50616e-11 3.26472e-05 1.50083e-13)
(-1.82231e-11 4.23132e-05 8.90232e-14)
(-1.71652e-11 4.47886e-05 7.49341e-14)
(-2.08962e-11 5.46759e-05 1.4163e-13)
(-2.65012e-11 6.54772e-05 1.48035e-13)
(-3.14502e-11 7.62605e-05 1.49201e-13)
(-3.60197e-11 8.60124e-05 8.40405e-14)
(-3.40799e-11 8.84224e-05 7.82848e-14)
(-3.84872e-11 9.82833e-05 1.42903e-13)
(-4.36978e-11 0.000109089 1.48428e-13)
(-4.89069e-11 0.000119881 1.47678e-13)
(-5.33716e-11 0.000129657 8.33574e-14)
(-5.13976e-11 0.000132055 7.8713e-14)
(-5.60161e-11 0.000141903 1.44162e-13)
(-6.08747e-11 0.000152708 1.47971e-13)
(-6.66145e-11 0.000163504 1.47587e-13)
(-7.03708e-11 0.000173291 8.22315e-14)
(-6.93105e-11 0.000175685 7.98346e-14)
(-7.2793e-11 0.000185527 1.43888e-13)
(-7.90636e-11 0.000196339 1.49546e-13)
(-8.31777e-11 0.000207229 1.51167e-13)
(-8.94755e-11 0.000218034 1.47843e-13)
(-9.29862e-11 0.000227829 8.34817e-14)
(-9.18609e-11 0.00023022 8.01135e-14)
(-9.56348e-11 0.000240056 1.46289e-13)
(-1.01368e-10 0.000250861 1.49274e-13)
(-1.06256e-10 0.00026166 1.48158e-13)
(-1.10927e-10 0.000271458 8.24749e-14)
(-1.08848e-10 0.000273848 8.0729e-14)
(-1.13419e-10 0.000283681 1.45798e-13)
(-1.18492e-10 0.000294486 1.49456e-13)
(-1.23923e-10 0.000305285 1.47525e-13)
(-1.28142e-10 0.000315086 8.24882e-14)
(-1.26443e-10 0.000317476 8.05649e-14)
(-1.30704e-10 0.000327307 1.45947e-13)
(-1.36033e-10 0.000338111 1.49165e-13)
(-1.4125e-10 0.000348911 1.47407e-13)
(-1.45643e-10 0.000358714 8.22012e-14)
(-1.43806e-10 0.000361103 8.06896e-14)
(-1.48183e-10 0.000370932 1.45852e-13)
(-1.53417e-10 0.000381737 1.49117e-13)
(-1.58708e-10 0.000392537 1.47168e-13)
(-1.6304e-10 0.000402341 8.21043e-14)
(-1.61254e-10 0.00040473 8.06789e-14)
(-1.65595e-10 0.000414558 1.45871e-13)
(-1.70853e-10 0.000425362 1.48996e-13)
(-1.76129e-10 0.000436163 1.4705e-13)
(-1.80466e-10 0.000445968 8.19595e-14)
(-1.78687e-10 0.000448357 8.07332e-14)
(-1.83014e-10 0.000458184 1.45826e-13)
(-1.88296e-10 0.000468988 1.48958e-13)
(-1.93536e-10 0.000479789 1.46892e-13)
(-1.97918e-10 0.000489595 8.19065e-14)
(-1.96082e-10 0.000491984 8.07065e-14)
(-2.00484e-10 0.00050181 1.45868e-13)
(-2.05674e-10 0.000512614 1.48837e-13)
(-2.11025e-10 0.000523415 1.46863e-13)
(-2.15271e-10 0.000533222 8.17422e-14)
(-2.13601e-10 0.000535611 8.08252e-14)
(-2.17805e-10 0.000545436 1.45737e-13)
(-2.23232e-10 0.00055624 1.48932e-13)
(-2.28297e-10 0.000567041 1.46605e-13)
(-2.32886e-10 0.000576849 8.18821e-14)
(-2.30806e-10 0.000579238 8.05928e-14)
(-2.35503e-10 0.000589062 1.46023e-13)
(-2.40339e-10 0.000599866 1.48537e-13)
(-2.46111e-10 0.000610667 1.46954e-13)
(-2.49852e-10 0.000620476 8.13201e-14)
(-2.4879e-10 0.000622864 8.12146e-14)
(-2.52269e-10 0.000632689 1.45326e-13)
(-2.58568e-10 0.0006435 1.50068e-13)
(-2.6267e-10 0.000654391 1.50577e-13)
(-2.68975e-10 0.000665199 1.46547e-13)
(-2.72467e-10 0.000675009 8.23464e-14)
(-2.71377e-10 0.000677397 8.06738e-14)
(-2.75134e-10 0.000687221 1.46577e-13)
(-2.80888e-10 0.000698024 1.48918e-13)
(-2.85751e-10 0.000708826 1.47194e-13)
(-2.90438e-10 0.000718636 8.16492e-14)
(-2.88356e-10 0.000721024 8.11939e-14)
(-2.92939e-10 0.000730847 1.46107e-13)
(-2.98005e-10 0.000741651 1.49226e-13)
(-3.03439e-10 0.000752452 1.46819e-13)
(-3.07649e-10 0.000762262 8.18469e-14)
(-3.05967e-10 0.000764651 8.09816e-14)
(-3.10217e-10 0.000774473 1.46248e-13)
(-3.15561e-10 0.000785277 1.49037e-13)
(-3.20762e-10 0.000796078 1.46868e-13)
(-3.25168e-10 0.000805889 8.1707e-14)
(-3.23321e-10 0.000808277 8.10524e-14)
(-3.27713e-10 0.000818099 1.46161e-13)
(-3.32934e-10 0.000828903 1.49041e-13)
(-3.38241e-10 0.000839704 1.46773e-13)
(-3.42551e-10 0.000849515 8.16915e-14)
(-3.40793e-10 0.000851904 8.10313e-14)
(-3.45103e-10 0.000861726 1.46145e-13)
(-3.50404e-10 0.000872529 1.49002e-13)
(-3.55629e-10 0.000883331 1.46711e-13)
(-3.60023e-10 0.000893142 8.16726e-14)
(-3.58177e-10 0.00089553 8.09996e-14)
(-3.62585e-10 0.000905352 1.46161e-13)
(-3.67774e-10 0.000916155 1.48918e-13)
(-3.73127e-10 0.000926957 1.46725e-13)
(-3.77372e-10 0.000936768 8.15619e-14)
(-3.75701e-10 0.000939157 8.10903e-14)
(-3.79904e-10 0.000948978 1.46026e-13)
(-3.85336e-10 0.000959781 1.49025e-13)
(-3.904e-10 0.000970583 1.46512e-13)
(-3.94989e-10 0.000980395 8.17348e-14)
(-3.92907e-10 0.000982783 8.0842e-14)
(-3.97603e-10 0.000992604 1.46303e-13)
(-4.02445e-10 0.00100341 1.48642e-13)
(-4.08214e-10 0.00101421 1.46896e-13)
(-4.11958e-10 0.00102402 8.11982e-14)
(-4.1089e-10 0.00102641 8.14534e-14)
(-4.14372e-10 0.00103623 1.45589e-13)
(-4.20672e-10 0.00104704 1.50188e-13)
(-4.24775e-10 0.00105793 1.50502e-13)
(-4.31079e-10 0.00106874 1.46341e-13)
(-4.3457e-10 0.00107855 8.21515e-14)
(-4.33484e-10 0.00108094 8.07985e-14)
(-4.37238e-10 0.00109076 1.46663e-13)
(-4.42995e-10 0.00110157 1.48873e-13)
(-4.47855e-10 0.00111237 1.47021e-13)
(-4.52543e-10 0.00112218 8.14867e-14)
(-4.50462e-10 0.00112457 8.13141e-14)
(-4.55044e-10 0.00113439 1.46202e-13)
(-4.60113e-10 0.00114519 1.49203e-13)
(-4.65544e-10 0.00115599 1.46677e-13)
(-4.69756e-10 0.00116581 8.17109e-14)
(-4.68071e-10 0.0011682 8.10961e-14)
(-4.72326e-10 0.00117802 1.46354e-13)
(-4.77666e-10 0.00118882 1.49026e-13)
(-4.82871e-10 0.00119962 1.4676e-13)
(-4.8727e-10 0.00120943 8.15836e-14)
(-4.85433e-10 0.00121182 8.11738e-14)
(-4.89813e-10 0.00122164 1.4626e-13)
(-4.9505e-10 0.00123245 1.49057e-13)
(-5.00338e-10 0.00124325 1.46672e-13)
(-5.0467e-10 0.00125306 8.16048e-14)
(-5.02886e-10 0.00125545 8.11272e-14)
(-5.07227e-10 0.00126527 1.46276e-13)
(-5.12491e-10 0.00127607 1.48998e-13)
(-5.17762e-10 0.00128687 1.46668e-13)
(-5.22101e-10 0.00129669 8.15537e-14)
(-5.20319e-10 0.00129907 8.11495e-14)
(-5.24649e-10 0.00130889 1.46227e-13)
(-5.29934e-10 0.0013197 1.49005e-13)
(-5.35173e-10 0.0013305 1.46602e-13)
(-5.39555e-10 0.00134031 8.15725e-14)
(-5.37719e-10 0.0013427 8.10981e-14)
(-5.42119e-10 0.00135252 1.46262e-13)
(-5.47316e-10 0.00136332 1.4892e-13)
(-5.52662e-10 0.00137413 1.46645e-13)
(-5.56913e-10 0.00138394 8.14678e-14)
(-5.55237e-10 0.00138633 8.11937e-14)
(-5.59444e-10 0.00139615 1.46125e-13)
(-5.64873e-10 0.00140695 1.49042e-13)
(-5.69939e-10 0.00141775 1.46444e-13)
(-5.74526e-10 0.00142757 8.16568e-14)
(-5.72446e-10 0.00142995 8.09401e-14)
(-5.7714e-10 0.00143977 1.46407e-13)
(-5.81985e-10 0.00145058 1.48665e-13)
(-5.87751e-10 0.00146138 1.46846e-13)
(-5.91498e-10 0.00147119 8.11276e-14)
(-5.90427e-10 0.00147358 8.15536e-14)
(-5.93911e-10 0.0014834 1.4569e-13)
(-6.00211e-10 0.00149421 1.50222e-13)
(-6.04314e-10 0.0015051 1.50442e-13)
(-6.10617e-10 0.00151591 1.46218e-13)
(-6.14107e-10 0.00152572 8.20431e-14)
(-6.13024e-10 0.00152811 8.08482e-14)
(-6.16777e-10 0.00153793 1.46683e-13)
(-6.22536e-10 0.00154874 1.48829e-13)
(-6.27392e-10 0.00155954 1.4691e-13)
(-6.32082e-10 0.00156935 8.13936e-14)
(-6.3e-10 0.00157174 8.13617e-14)
(-6.34585e-10 0.00158156 1.46231e-13)
(-6.39651e-10 0.00159236 1.49166e-13)
(-6.45085e-10 0.00160316 1.46583e-13)
(-6.49293e-10 0.00161298 8.16247e-14)
(-6.47614e-10 0.00161537 8.11484e-14)
(-6.51863e-10 0.00162519 1.46384e-13)
(-6.57209e-10 0.00163599 1.49004e-13)
(-6.62407e-10 0.00164679 1.46674e-13)
(-6.66814e-10 0.0016566 8.15137e-14)
(-6.64967e-10 0.00165899 8.12181e-14)
(-6.6936e-10 0.00166881 1.46306e-13)
(-6.74582e-10 0.00167961 1.49031e-13)
(-6.79888e-10 0.00169042 1.46613e-13)
(-6.84197e-10 0.00170023 8.15247e-14)
(-6.8244e-10 0.00170262 8.11943e-14)
(-6.8675e-10 0.00171244 1.46299e-13)
(-6.92052e-10 0.00172324 1.49012e-13)
(-6.97277e-10 0.00173404 1.46581e-13)
(-7.01671e-10 0.00174386 8.15275e-14)
(-6.99824e-10 0.00174624 8.11612e-14)
(-7.04232e-10 0.00175606 1.46321e-13)
(-7.09424e-10 0.00176687 1.48944e-13)
(-7.14775e-10 0.00177767 1.46621e-13)
(-7.19021e-10 0.00178748 8.14368e-14)
(-7.17348e-10 0.00178987 8.12496e-14)
(-7.21552e-10 0.00179969 1.46191e-13)
(-7.26985e-10 0.00181049 1.49066e-13)
(-7.32049e-10 0.0018213 1.46431e-13)
(-7.36637e-10 0.00183111 8.16274e-14)
(-7.34556e-10 0.0018335 8.09983e-14)
(-7.3925e-10 0.00184332 1.46473e-13)
(-7.44096e-10 0.00185412 1.48694e-13)
(-7.49862e-10 0.00186492 1.46837e-13)
(-7.53609e-10 0.00187474 8.11028e-14)
(-7.52536e-10 0.00187712 8.16118e-14)
(-7.56021e-10 0.00188694 1.45758e-13)
(-7.62322e-10 0.00189775 1.50255e-13)
(-7.66425e-10 0.00190864 1.50429e-13)
(-7.72728e-10 0.00191945 1.46173e-13)
(-7.76217e-10 0.00192927 8.19982e-14)
(-7.75135e-10 0.00193166 8.08816e-14)
(-7.78887e-10 0.00194148 1.46709e-13)
(-7.84647e-10 0.00195228 1.48822e-13)
(-7.89503e-10 0.00196308 1.4687e-13)
(-7.94192e-10 0.00197289 8.13535e-14)
(-7.92111e-10 0.00197528 8.13964e-14)
(-7.96695e-10 0.0019851 1.4626e-13)
(-8.01763e-10 0.0019959 1.49165e-13)
(-8.07194e-10 0.00200671 1.46548e-13)
(-8.11405e-10 0.00201652 8.15917e-14)
(-8.09722e-10 0.00201891 8.11804e-14)
(-8.13976e-10 0.00202873 1.4642e-13)
(-8.19317e-10 0.00203953 1.49002e-13)
(-8.24521e-10 0.00205033 1.4665e-13)
(-8.2892e-10 0.00206015 8.14772e-14)
(-8.27083e-10 0.00206254 8.12598e-14)
(-8.31464e-10 0.00207235 1.46333e-13)
(-8.36701e-10 0.00208316 1.49047e-13)
(-8.41989e-10 0.00209396 1.46579e-13)
(-8.4632e-10 0.00210377 8.15106e-14)
(-8.44537e-10 0.00210616 8.12141e-14)
(-8.48877e-10 0.00211598 1.46355e-13)
(-8.54143e-10 0.00212678 1.48998e-13)
(-8.59412e-10 0.00213759 1.46591e-13)
(-8.63752e-10 0.0021474 8.14699e-14)
(-8.6197e-10 0.00214979 8.12375e-14)
(-8.663e-10 0.00215961 1.46312e-13)
(-8.71586e-10 0.00217041 1.49015e-13)
(-8.76824e-10 0.00218121 1.46538e-13)
(-8.81206e-10 0.00219103 8.14987e-14)
(-8.7937e-10 0.00219341 8.11866e-14)
(-8.8377e-10 0.00220323 1.46352e-13)
(-8.88968e-10 0.00221404 1.48939e-13)
(-8.94313e-10 0.00222484 1.46593e-13)
(-8.98565e-10 0.00223465 8.14026e-14)
(-8.96887e-10 0.00223704 8.1283e-14)
(-9.01095e-10 0.00224686 1.46219e-13)
(-9.06525e-10 0.00225766 1.4907e-13)
(-9.11592e-10 0.00226846 1.46404e-13)
(-9.16178e-10 0.00227828 8.16002e-14)
(-9.14098e-10 0.00228067 8.10289e-14)
(-9.1879e-10 0.00229049 1.46506e-13)
(-9.23638e-10 0.00230129 1.48698e-13)
(-9.29403e-10 0.00231209 1.46817e-13)
(-9.33151e-10 0.00232191 8.10762e-14)
(-9.32077e-10 0.00232429 8.16453e-14)
(-9.35563e-10 0.00233411 1.45789e-13)
(-9.41863e-10 0.00234492 1.50264e-13)
(-9.45966e-10 0.00235581 1.50404e-13)
(-9.52269e-10 0.00236662 1.46126e-13)
(-9.55758e-10 0.00237644 8.19573e-14)
(-9.54677e-10 0.00237883 8.08983e-14)
(-9.58428e-10 0.00238865 1.46713e-13)
(-9.64189e-10 0.00239945 1.48803e-13)
(-9.69043e-10 0.00241025 1.46826e-13)
(-9.73734e-10 0.00242006 8.13183e-14)
(-9.71652e-10 0.00242245 8.14116e-14)
(-9.76238e-10 0.00243227 1.46268e-13)
(-9.81303e-10 0.00244307 1.49148e-13)
(-9.86737e-10 0.00245388 1.46512e-13)
(-9.90944e-10 0.00246369 8.15561e-14)
(-9.89266e-10 0.00246608 8.12004e-14)
(-9.93515e-10 0.0024759 1.46426e-13)
(-9.98862e-10 0.0024867 1.48993e-13)
(-1.00406e-09 0.0024975 1.46611e-13)
(-1.00847e-09 0.00250732 8.14521e-14)
(-1.00662e-09 0.00250971 8.12715e-14)
(-1.01101e-09 0.00251952 1.46353e-13)
(-1.01623e-09 0.00253033 1.49028e-13)
(-1.02154e-09 0.00254113 1.4656e-13)
(-1.02585e-09 0.00255094 8.14693e-14)
(-1.02409e-09 0.00255333 8.12491e-14)
(-1.0284e-09 0.00256315 1.4635e-13)
(-1.03371e-09 0.00257395 1.49015e-13)
(-1.03893e-09 0.00258476 1.46536e-13)
(-1.04332e-09 0.00259457 8.14778e-14)
(-1.04148e-09 0.00259696 8.12171e-14)
(-1.04588e-09 0.00260678 1.46376e-13)
(-1.05108e-09 0.00261758 1.48954e-13)
(-1.05643e-09 0.00262838 1.46584e-13)
(-1.06067e-09 0.0026382 8.13924e-14)
(-1.059e-09 0.00264058 8.13066e-14)
(-1.06321e-09 0.0026504 1.46251e-13)
(-1.06864e-09 0.00266121 1.49081e-13)
(-1.0737e-09 0.00267201 1.46401e-13)
(-1.07829e-09 0.00268182 8.15883e-14)
(-1.07621e-09 0.00268421 8.10556e-14)
(-1.0809e-09 0.00269403 1.46536e-13)
(-1.08575e-09 0.00270483 1.48714e-13)
(-1.09151e-09 0.00271563 1.46815e-13)
(-1.09526e-09 0.00272545 8.1067e-14)
(-1.09419e-09 0.00272784 8.16717e-14)
(-1.09767e-09 0.00273766 1.45821e-13)
(-1.10397e-09 0.00274847 1.50281e-13)
(-1.10808e-09 0.00275936 1.50401e-13)
(-1.11438e-09 0.00277017 1.46108e-13)
(-1.11787e-09 0.00277998 8.19388e-14)
(-1.11679e-09 0.00278237 8.09141e-14)
(-1.12054e-09 0.00279219 1.46727e-13)
(-1.1263e-09 0.00280299 1.48802e-13)
(-1.13116e-09 0.00281379 1.46811e-13)
(-1.13584e-09 0.00282361 8.13008e-14)
(-1.13376e-09 0.002826 8.14291e-14)
(-1.13835e-09 0.00283581 1.46283e-13)
(-1.14342e-09 0.00284662 1.4915e-13)
(-1.14885e-09 0.00285742 1.46496e-13)
(-1.15306e-09 0.00286723 8.15432e-14)
(-1.15138e-09 0.00286962 8.1215e-14)
(-1.15563e-09 0.00287944 1.46446e-13)
(-1.16097e-09 0.00289024 1.48992e-13)
(-1.16617e-09 0.00290105 1.46605e-13)
(-1.17057e-09 0.00291086 8.14333e-14)
(-1.16874e-09 0.00291325 8.12955e-14)
(-1.17312e-09 0.00292307 1.46364e-13)
(-1.17835e-09 0.00293387 1.49042e-13)
(-1.18364e-09 0.00294467 1.4654e-13)
(-1.18797e-09 0.00295449 8.14706e-14)
(-1.18619e-09 0.00295688 8.12511e-14)
(-1.19053e-09 0.00296669 1.46389e-13)
(-1.1958e-09 0.0029775 1.48998e-13)
(-1.20107e-09 0.0029883 1.46557e-13)
(-1.20541e-09 0.00299811 8.14339e-14)
(-1.20362e-09 0.0030005 8.12756e-14)
(-1.20795e-09 0.00301032 1.46349e-13)
(-1.21324e-09 0.00302112 1.49019e-13)
(-1.21848e-09 0.00303192 1.4651e-13)
(-1.22286e-09 0.00304174 8.14661e-14)
(-1.22102e-09 0.00304413 8.12258e-14)
(-1.22542e-09 0.00305395 1.46392e-13)
(-1.23062e-09 0.00306475 1.48947e-13)
(-1.23597e-09 0.00307555 1.4657e-13)
(-1.24022e-09 0.00308537 8.13735e-14)
(-1.23854e-09 0.00308775 8.1323e-14)
(-1.24275e-09 0.00309757 1.46262e-13)
(-1.24818e-09 0.00310838 1.49082e-13)
(-1.25325e-09 0.00311918 1.46386e-13)
(-1.25783e-09 0.00312899 8.15744e-14)
(-1.25575e-09 0.00313138 8.10696e-14)
(-1.26044e-09 0.0031412 1.46551e-13)
(-1.26529e-09 0.003152 1.48714e-13)
(-1.27106e-09 0.0031628 1.46804e-13)
(-1.2748e-09 0.00317262 8.10525e-14)
(-1.27373e-09 0.00317501 8.16879e-14)
(-1.27722e-09 0.00318483 1.45835e-13)
(-1.28352e-09 0.00319564 1.50284e-13)
(-1.28762e-09 0.00320653 1.50387e-13)
(-1.29392e-09 0.00321734 1.46083e-13)
(-1.29741e-09 0.00322715 8.19169e-14)
(-1.29633e-09 0.00322954 8.09219e-14)
(-1.30008e-09 0.00323936 1.46727e-13)
(-1.30584e-09 0.00325016 1.48791e-13)
(-1.3107e-09 0.00326096 1.46786e-13)
(-1.31539e-09 0.00327078 8.12822e-14)
(-1.31331e-09 0.00327317 8.14357e-14)
(-1.31789e-09 0.00328298 1.46286e-13)
(-1.32296e-09 0.00329379 1.49139e-13)
(-1.32839e-09 0.00330459 1.46477e-13)
(-1.3326e-09 0.0033144 8.15229e-14)
(-1.33092e-09 0.00331679 8.12258e-14)
(-1.33517e-09 0.00332661 1.46447e-13)
(-1.34052e-09 0.00333741 1.48988e-13)
(-1.34571e-09 0.00334822 1.46581e-13)
(-1.35012e-09 0.00335803 8.14216e-14)
(-1.34827e-09 0.00336042 8.1298e-14)
(-1.35267e-09 0.00337024 1.46377e-13)
(-1.35789e-09 0.00338104 1.49026e-13)
(-1.36319e-09 0.00339184 1.46533e-13)
(-1.3675e-09 0.00340166 8.14417e-14)
(-1.36575e-09 0.00340405 8.12765e-14)
(-1.37006e-09 0.00341386 1.46376e-13)
(-1.37536e-09 0.00342467 1.49017e-13)
(-1.38058e-09 0.00343547 1.46514e-13)
(-1.38498e-09 0.00344528 8.14527e-14)
(-1.38313e-09 0.00344767 8.12455e-14)
(-1.38754e-09 0.00345749 1.46405e-13)
(-1.39273e-09 0.00346829 1.48958e-13)
(-1.39808e-09 0.00347909 1.46565e-13)
(-1.40233e-09 0.00348891 8.13698e-14)
(-1.40065e-09 0.0034913 8.13358e-14)
(-1.40486e-09 0.00350112 1.46281e-13)
(-1.41029e-09 0.00351192 1.49089e-13)
(-1.41536e-09 0.00352272 1.46386e-13)
(-1.41994e-09 0.00353254 8.15681e-14)
(-1.41786e-09 0.00353492 8.10855e-14)
(-1.42256e-09 0.00354474 1.46569e-13)
(-1.4274e-09 0.00355554 1.48724e-13)
(-1.43317e-09 0.00356635 1.46804e-13)
(-1.43692e-09 0.00357616 8.10483e-14)
(-1.43584e-09 0.00357855 8.17032e-14)
(-1.43933e-09 0.00358837 1.45855e-13)
(-1.44563e-09 0.00359918 1.50294e-13)
(-1.44973e-09 0.00361007 1.50386e-13)
(-1.45603e-09 0.00362088 1.46074e-13)
(-1.45952e-09 0.0036307 8.19074e-14)
(-1.45844e-09 0.00363308 8.09312e-14)
(-1.46219e-09 0.0036429 1.46737e-13)
(-1.46795e-09 0.0036537 1.48791e-13)
(-1.47281e-09 0.00366451 1.46779e-13)
(-1.4775e-09 0.00367432 8.12725e-14)
(-1.47542e-09 0.00367671 8.14468e-14)
(-1.48e-09 0.00368653 1.46295e-13)
(-1.48507e-09 0.00369733 1.49142e-13)
(-1.4905e-09 0.00370813 1.46468e-13)
(-1.49471e-09 0.00371795 8.15171e-14)
(-1.49303e-09 0.00372034 8.12336e-14)
(-1.49728e-09 0.00373015 1.46461e-13)
(-1.50263e-09 0.00374096 1.48987e-13)
(-1.50783e-09 0.00375176 1.4658e-13)
(-1.51223e-09 0.00376157 8.14091e-14)
(-1.51039e-09 0.00376396 8.13152e-14)
(-1.51477e-09 0.00377378 1.46381e-13)
(-1.52001e-09 0.00378458 1.49039e-13)
(-1.5253e-09 0.00379539 1.46518e-13)
(-1.52963e-09 0.0038052 8.14486e-14)
(-1.52784e-09 0.00380759 8.12716e-14)
(-1.53218e-09 0.00381741 1.46408e-13)
(-1.53745e-09 0.00382821 1.48998e-13)
(-1.54272e-09 0.00383901 1.46539e-13)
(-1.54706e-09 0.00384883 8.14137e-14)
(-1.54528e-09 0.00385122 8.12969e-14)
(-1.54961e-09 0.00386103 1.4637e-13)
(-1.55489e-09 0.00387184 1.49022e-13)
(-1.56013e-09 0.00388264 1.46494e-13)
(-1.56451e-09 0.00389245 8.14479e-14)
(-1.56268e-09 0.00389484 8.12478e-14)
(-1.56708e-09 0.00390466 1.46415e-13)
(-1.57228e-09 0.00391546 1.48952e-13)
(-1.57762e-09 0.00392626 1.46558e-13)
(-1.58187e-09 0.00393608 8.13569e-14)
(-1.58019e-09 0.00393847 8.13459e-14)
(-1.5844e-09 0.00394829 1.46286e-13)
(-1.58983e-09 0.00395909 1.49089e-13)
(-1.5949e-09 0.00396989 1.46375e-13)
(-1.59949e-09 0.00397971 8.15597e-14)
(-1.59741e-09 0.00398209 8.10929e-14)
(-1.6021e-09 0.00399191 1.46577e-13)
(-1.60695e-09 0.00400271 1.48722e-13)
(-1.61271e-09 0.00401352 1.46796e-13)
(-1.61646e-09 0.00402333 8.10388e-14)
(-1.61538e-09 0.00402572 8.17126e-14)
(-1.61887e-09 0.00403554 1.45862e-13)
(-1.62517e-09 0.00404635 1.50295e-13)
(-1.62927e-09 0.00405724 1.50376e-13)
(-1.63558e-09 0.00406805 1.46058e-13)
(-1.63906e-09 0.00407786 8.18934e-14)
(-1.63799e-09 0.00408025 8.09357e-14)
(-1.64174e-09 0.00409007 1.46736e-13)
(-1.6475e-09 0.00410087 1.48783e-13)
(-1.65235e-09 0.00411168 1.46763e-13)
(-1.65704e-09 0.00412149 8.12611e-14)
(-1.65496e-09 0.00412388 8.14498e-14)
(-1.65955e-09 0.0041337 1.46297e-13)
(-1.66461e-09 0.0041445 1.49134e-13)
(-1.67004e-09 0.0041553 1.46456e-13)
(-1.67425e-09 0.00416512 8.15032e-14)
(-1.67257e-09 0.00416751 8.12408e-14)
(-1.67682e-09 0.00417732 1.46459e-13)
(-1.68217e-09 0.00418813 1.48985e-13)
(-1.68737e-09 0.00419893 1.46563e-13)
(-1.69177e-09 0.00420874 8.14036e-14)
(-1.68993e-09 0.00421113 8.13138e-14)
(-1.69432e-09 0.00422095 1.46391e-13)
(-1.69954e-09 0.00423175 1.49025e-13)
(-1.70485e-09 0.00424255 1.46517e-13)
(-1.70916e-09 0.00425237 8.14251e-14)
(-1.7074e-09 0.00425476 8.1293e-14)
(-1.71171e-09 0.00426458 1.46392e-13)
(-1.71701e-09 0.00427538 1.49018e-13)
(-1.72224e-09 0.00428618 1.465e-13)
(-1.72663e-09 0.004296 8.14375e-14)
(-1.72478e-09 0.00429838 8.12626e-14)
(-1.72919e-09 0.0043082 1.46422e-13)
(-1.73439e-09 0.00431901 1.48961e-13)
(-1.73974e-09 0.00432981 1.46554e-13)
(-1.74398e-09 0.00433962 8.13559e-14)
(-1.74231e-09 0.00434201 8.13536e-14)
(-1.74651e-09 0.00435183 1.463e-13)
(-1.75195e-09 0.00436263 1.49094e-13)
(-1.75701e-09 0.00437343 1.46376e-13)
(-1.7616e-09 0.00438325 8.15557e-14)
(-1.75952e-09 0.00438564 8.11037e-14)
(-1.76421e-09 0.00439546 1.46589e-13)
(-1.76906e-09 0.00440626 1.4873e-13)
(-1.77482e-09 0.00441706 1.46797e-13)
(-1.77857e-09 0.00442688 8.10367e-14)
(-1.7775e-09 0.00442926 8.17226e-14)
(-1.78098e-09 0.00443908 1.45875e-13)
(-1.78728e-09 0.00444989 1.50303e-13)
(-1.79139e-09 0.00446078 1.50377e-13)
(-1.79769e-09 0.00447159 1.46053e-13)
(-1.80118e-09 0.00448141 8.18879e-14)
(-1.8001e-09 0.0044838 8.0942e-14)
(-1.80385e-09 0.00449361 1.46743e-13)
(-1.80961e-09 0.00450442 1.48784e-13)
(-1.81446e-09 0.00451522 1.46759e-13)
(-1.81915e-09 0.00452503 8.1255e-14)
(-1.81707e-09 0.00452742 8.14577e-14)
(-1.82166e-09 0.00453724 1.46303e-13)
(-1.82672e-09 0.00454804 1.49137e-13)
(-1.83216e-09 0.00455885 1.46451e-13)
(-1.83637e-09 0.00456866 8.15006e-14)
(-1.83468e-09 0.00457105 8.12454e-14)
(-1.83894e-09 0.00458087 1.4647e-13)
(-1.84428e-09 0.00459167 1.48984e-13)
(-1.84948e-09 0.00460247 1.46564e-13)
(-1.85388e-09 0.00461229 8.1394e-14)
(-1.85204e-09 0.00461468 8.13276e-14)
(-1.85643e-09 0.00462449 1.46391e-13)
(-1.86166e-09 0.0046353 1.49038e-13)
(-1.86695e-09 0.0046461 1.46504e-13)
(-1.87128e-09 0.00465591 8.14346e-14)
(-1.8695e-09 0.0046583 8.12846e-14)
(-1.87384e-09 0.00466812 1.4642e-13)
(-1.87911e-09 0.00467892 1.48998e-13)
(-1.88437e-09 0.00468972 1.46527e-13)
(-1.88871e-09 0.00469954 8.14009e-14)
(-1.88693e-09 0.00470193 8.13105e-14)
(-1.89126e-09 0.00471175 1.46383e-13)
(-1.89655e-09 0.00472255 1.49023e-13)
(-1.90179e-09 0.00473335 1.46484e-13)
(-1.90617e-09 0.00474317 8.14361e-14)
(-1.90433e-09 0.00474555 8.1262e-14)
(-1.90873e-09 0.00475537 1.46429e-13)
(-1.91393e-09 0.00476617 1.48955e-13)
(-1.91928e-09 0.00477698 1.46549e-13)
(-1.92353e-09 0.00478679 8.13462e-14)
(-1.92185e-09 0.00478918 8.13606e-14)
(-1.92606e-09 0.004799 1.46302e-13)
(-1.93149e-09 0.0048098 1.49094e-13)
(-1.93655e-09 0.0048206 1.46368e-13)
(-1.94114e-09 0.00483042 8.15501e-14)
(-1.93906e-09 0.00483281 8.11081e-14)
(-1.94375e-09 0.00484262 1.46594e-13)
(-1.9486e-09 0.00485343 1.48728e-13)
(-1.95436e-09 0.00486423 1.46791e-13)
(-1.95811e-09 0.00487405 8.10299e-14)
(-1.95704e-09 0.00487643 8.17286e-14)
(-1.96052e-09 0.00488625 1.4588e-13)
(-1.96683e-09 0.00489706 1.50303e-13)
(-1.97093e-09 0.00490795 1.5037e-13)
(-1.97723e-09 0.00491876 1.46041e-13)
(-1.98072e-09 0.00492858 8.1878e-14)
(-1.97964e-09 0.00493097 8.09447e-14)
(-1.98339e-09 0.00494078 1.46741e-13)
(-1.98915e-09 0.00495159 1.48779e-13)
(-1.99401e-09 0.00496239 1.46747e-13)
(-1.9987e-09 0.0049722 8.12471e-14)
(-1.99661e-09 0.00497459 8.14592e-14)
(-2.0012e-09 0.00498441 1.46304e-13)
(-2.00627e-09 0.00499521 1.4913e-13)
(-2.0117e-09 0.00500602 1.46442e-13)
(-2.01591e-09 0.00501583 8.14903e-14)
(-2.01423e-09 0.00501822 8.12507e-14)
(-2.01848e-09 0.00502804 1.46467e-13)
(-2.02383e-09 0.00503884 1.48983e-13)
(-2.02902e-09 0.00504964 1.46551e-13)
(-2.03343e-09 0.00505946 8.13915e-14)
(-2.03158e-09 0.00506185 8.13243e-14)
(-2.03598e-09 0.00507166 1.464e-13)
(-2.0412e-09 0.00508247 1.49025e-13)
(-2.0465e-09 0.00509327 1.46507e-13)
(-2.05081e-09 0.00510308 8.14141e-14)
(-2.04906e-09 0.00510547 8.13039e-14)
(-2.05336e-09 0.00511529 1.46402e-13)
(-2.05867e-09 0.00512609 1.49018e-13)
(-2.06389e-09 0.00513689 1.46491e-13)
(-2.06829e-09 0.00514671 8.14274e-14)
(-2.06644e-09 0.0051491 8.12741e-14)
(-2.07085e-09 0.00515892 1.46433e-13)
(-2.07604e-09 0.00516972 1.48963e-13)
(-2.08139e-09 0.00518052 1.46546e-13)
(-2.08564e-09 0.00519034 8.13467e-14)
(-2.08396e-09 0.00519272 8.13655e-14)
(-2.08817e-09 0.00520254 1.46312e-13)
(-2.0936e-09 0.00521334 1.49097e-13)
(-2.09867e-09 0.00522415 1.4637e-13)
(-2.10325e-09 0.00523396 8.15473e-14)
(-2.10117e-09 0.00523635 8.11161e-14)
(-2.10586e-09 0.00524617 1.46603e-13)
(-2.11071e-09 0.00525697 1.48734e-13)
(-2.11648e-09 0.00526777 1.46792e-13)
(-2.12023e-09 0.00527759 8.10289e-14)
(-2.11915e-09 0.00527998 8.17357e-14)
(-2.12264e-09 0.00528979 1.45889e-13)
(-2.12894e-09 0.0053006 1.50308e-13)
(-2.13304e-09 0.0053115 1.50371e-13)
(-2.13934e-09 0.00532231 1.46038e-13)
(-2.14283e-09 0.00533212 8.18746e-14)
(-2.14175e-09 0.00533451 8.09492e-14)
(-2.1455e-09 0.00534433 1.46747e-13)
(-2.15126e-09 0.00535513 1.48779e-13)
(-2.15612e-09 0.00536593 1.46746e-13)
(-2.16081e-09 0.00537575 8.12429e-14)
(-2.15873e-09 0.00537814 8.14653e-14)
(-2.16331e-09 0.00538795 1.46308e-13)
(-2.16838e-09 0.00539876 1.49133e-13)
(-2.17381e-09 0.00540956 1.46439e-13)
(-2.17802e-09 0.00541937 8.14893e-14)
(-2.17634e-09 0.00542176 8.12535e-14)
(-2.18059e-09 0.00543158 1.46477e-13)
(-2.18593e-09 0.00544238 1.48982e-13)
(-2.19114e-09 0.00545318 1.46554e-13)
(-2.19554e-09 0.005463 8.13835e-14)
(-2.1937e-09 0.00546539 8.13362e-14)
(-2.19808e-09 0.00547521 1.46399e-13)
(-2.20332e-09 0.00548601 1.49037e-13)
(-2.20861e-09 0.00549681 1.46495e-13)
(-2.21294e-09 0.00550663 8.1425e-14)
(-2.21115e-09 0.00550901 8.12936e-14)
(-2.21549e-09 0.00551883 1.46428e-13)
(-2.22076e-09 0.00552964 1.48998e-13)
(-2.22603e-09 0.00554044 1.46519e-13)
(-2.23037e-09 0.00555025 8.1392e-14)
(-2.22859e-09 0.00555264 8.132e-14)
(-2.23292e-09 0.00556246 1.46392e-13)
(-2.2382e-09 0.00557326 1.49025e-13)
(-2.24344e-09 0.00558406 1.46477e-13)
(-2.24782e-09 0.00559388 8.1428e-14)
(-2.24599e-09 0.00559627 8.12718e-14)
(-2.25039e-09 0.00560609 1.46439e-13)
(-2.25559e-09 0.00561689 1.48957e-13)
(-2.26093e-09 0.00562769 1.46543e-13)
(-2.26518e-09 0.00563751 8.13388e-14)
(-2.2635e-09 0.00563989 8.13709e-14)
(-2.26771e-09 0.00564971 1.46312e-13)
(-2.27314e-09 0.00566051 1.49097e-13)
(-2.27821e-09 0.00567132 1.46363e-13)
(-2.28279e-09 0.00568113 8.15434e-14)
(-2.28071e-09 0.00568352 8.11186e-14)
(-2.28541e-09 0.00569334 1.46606e-13)
(-2.29026e-09 0.00570414 1.48732e-13)
(-2.29602e-09 0.00571494 1.46788e-13)
(-2.29977e-09 0.00572476 8.10236e-14)
(-2.29869e-09 0.00572715 8.174e-14)
(-2.30218e-09 0.00573696 1.45892e-13)
(-2.30848e-09 0.00574777 1.50308e-13)
(-2.31258e-09 0.00575867 1.50365e-13)
(-2.31889e-09 0.00576947 1.4603e-13)
(-2.32237e-09 0.00577929 8.18671e-14)
(-2.32129e-09 0.00578168 8.09512e-14)
(-2.32505e-09 0.0057915 1.46745e-13)
(-2.33081e-09 0.0058023 1.48775e-13)
(-2.33566e-09 0.0058131 1.46737e-13)
(-2.34035e-09 0.00582292 8.12373e-14)
(-2.33827e-09 0.00582531 8.14657e-14)
(-2.34286e-09 0.00583512 1.46309e-13)
(-2.34792e-09 0.00584593 1.49128e-13)
(-2.35335e-09 0.00585673 1.46433e-13)
(-2.35756e-09 0.00586654 8.1481e-14)
(-2.35588e-09 0.00586893 8.12578e-14)
(-2.36013e-09 0.00587875 1.46473e-13)
(-2.36548e-09 0.00588955 1.48982e-13)
(-2.37068e-09 0.00590035 1.46542e-13)
(-2.37508e-09 0.00591017 8.13831e-14)
(-2.37324e-09 0.00591256 8.13317e-14)
(-2.37763e-09 0.00592238 1.46406e-13)
(-2.38285e-09 0.00593318 1.49024e-13)
(-2.38816e-09 0.00594398 1.46499e-13)
(-2.39247e-09 0.0059538 8.14061e-14)
(-2.39071e-09 0.00595618 8.13118e-14)
(-2.39502e-09 0.005966 1.4641e-13)
(-2.40032e-09 0.0059768 1.49019e-13)
(-2.40555e-09 0.00598761 1.46485e-13)
(-2.40994e-09 0.00599742 8.14201e-14)
(-2.40809e-09 0.00599981 8.12823e-14)
(-2.4125e-09 0.00600963 1.46441e-13)
(-2.4177e-09 0.00602043 1.48965e-13)
(-2.42305e-09 0.00603123 1.46541e-13)
(-2.42729e-09 0.00604105 8.134e-14)
(-2.42562e-09 0.00604344 8.13742e-14)
(-2.42982e-09 0.00605325 1.46321e-13)
(-2.43526e-09 0.00606406 1.49099e-13)
(-2.44032e-09 0.00607486 1.46366e-13)
(-2.44491e-09 0.00608468 8.15414e-14)
(-2.44283e-09 0.00608706 8.1125e-14)
(-2.44752e-09 0.00609688 1.46613e-13)
(-2.45237e-09 0.00610768 1.48737e-13)
(-2.45813e-09 0.00611849 1.46789e-13)
(-2.46188e-09 0.0061283 8.10232e-14)
(-2.46081e-09 0.00613069 8.17453e-14)
(-2.46429e-09 0.00614051 1.45899e-13)
(-2.47059e-09 0.00615132 1.50312e-13)
(-2.4747e-09 0.00616221 1.50366e-13)
(-2.481e-09 0.00617302 1.46028e-13)
(-2.48449e-09 0.00618283 8.1865e-14)
(-2.48341e-09 0.00618522 8.09546e-14)
(-2.48716e-09 0.00619504 1.4675e-13)
(-2.49292e-09 0.00620584 1.48776e-13)
(-2.49777e-09 0.00621665 1.46736e-13)
(-2.50246e-09 0.00622646 8.12342e-14)
(-2.50038e-09 0.00622885 8.14707e-14)
(-2.50497e-09 0.00623867 1.46312e-13)
(-2.51003e-09 0.00624947 1.49131e-13)
(-2.51547e-09 0.00626027 1.4643e-13)
(-2.51968e-09 0.00627009 8.14811e-14)
(-2.51799e-09 0.00627248 8.12594e-14)
(-2.52225e-09 0.00628229 1.46481e-13)
(-2.52759e-09 0.0062931 1.4898e-13)
(-2.53279e-09 0.0063039 1.46546e-13)
(-2.53719e-09 0.00631371 8.13759e-14)
(-2.53535e-09 0.0063161 8.13424e-14)
(-2.53974e-09 0.00632592 1.46404e-13)
(-2.54497e-09 0.00633672 1.49036e-13)
(-2.55026e-09 0.00634752 1.46488e-13)
(-2.55459e-09 0.00635734 8.14179e-14)
(-2.55281e-09 0.00635973 8.13002e-14)
(-2.55715e-09 0.00636955 1.46434e-13)
(-2.56242e-09 0.00638035 1.48998e-13)
(-2.56768e-09 0.00639115 1.46513e-13)
(-2.57202e-09 0.00640097 8.13855e-14)
(-2.57024e-09 0.00640335 8.13269e-14)
(-2.57457e-09 0.00641317 1.46399e-13)
(-2.57986e-09 0.00642397 1.49025e-13)
(-2.5851e-09 0.00643478 1.46472e-13)
(-2.58948e-09 0.00644459 8.1422e-14)
(-2.58764e-09 0.00644698 8.12791e-14)
(-2.59204e-09 0.0064568 1.46447e-13)
(-2.59724e-09 0.0064676 1.48959e-13)
(-2.60259e-09 0.0064784 1.46539e-13)
(-2.60684e-09 0.00648822 8.13333e-14)
(-2.60516e-09 0.00649061 8.13784e-14)
(-2.60937e-09 0.00650042 1.46321e-13)
(-2.6148e-09 0.00651123 1.49099e-13)
(-2.61986e-09 0.00652203 1.4636e-13)
(-2.62445e-09 0.00653185 8.15384e-14)
(-2.62237e-09 0.00653423 8.11265e-14)
(-2.62706e-09 0.00654405 1.46615e-13)
(-2.63191e-09 0.00655485 1.48735e-13)
(-2.63767e-09 0.00656566 1.46785e-13)
(-2.64142e-09 0.00657547 8.1019e-14)
(-2.64035e-09 0.00657786 8.17483e-14)
(-2.64383e-09 0.00658768 1.45901e-13)
(-2.65014e-09 0.00659849 1.50312e-13)
(-2.65424e-09 0.00660938 1.50362e-13)
(-2.66054e-09 0.00662019 1.46021e-13)
(-2.66403e-09 0.00663 8.18591e-14)
(-2.66295e-09 0.00663239 8.09559e-14)
(-2.6667e-09 0.00664221 1.46748e-13)
(-2.67246e-09 0.00665301 1.48773e-13)
(-2.67731e-09 0.00666381 1.46728e-13)
(-2.68201e-09 0.00667363 8.12299e-14)
(-2.67992e-09 0.00667602 8.14707e-14)
(-2.68451e-09 0.00668584 1.46312e-13)
(-2.68958e-09 0.00669664 1.49126e-13)
(-2.69501e-09 0.00670744 1.46425e-13)
(-2.69922e-09 0.00671726 8.14742e-14)
(-2.69754e-09 0.00671965 8.1263e-14)
(-2.70179e-09 0.00672946 1.46478e-13)