/*--------------------------------*- C++ -*----------------------------------*\
| =========                 |                                                 |
| \\      /  F ield         | OpenFOAM: The Open Source CFD Toolbox           |
|  \\    /   O peration     | Version:  2206                                  |
|   \\  /    A nd           | Website:  www.openfoam.com                      |
|    \\/     M anipulation  |                                                 |
\*---------------------------------------------------------------------------*/
FoamFile
{
    version     2.0;
    format      ascii;
    arch        "LSB;label=32;scalar=64";
    class       volScalarField;
    location    "8472";
    object      p;
}
// * * * * * * * * * * * * * * * * * * * * * * * * * * * * * * * * * * * * * //

dimensions      [0 2 -2 0 0 0 0];

internalField   nonuniform List<scalar> 
100
(
-1.70215139e-09
0.0390833097
0.0575149045
0.075152623
0.0890149163
0.100568065
0.110223967
0.118387427
0.125351514
0.131341609
0.136532427
0.141061183
0.145036835
0.14854679
0.151661826
0.154439748
0.156928139
0.159166458
0.161187651
0.163019395
0.164685085
0.166204601
0.167594925
0.168870636
0.170044302
0.17112681
0.172127627
0.173055015
0.173916214
0.174717588
0.175464749
0.176162664
0.176815739
0.177427897
0.178002636
0.178543086
0.179052057
0.17953207
0.179985401
0.180414101
0.18082003
0.181204871
0.181570154
0.181917272
0.182247494
0.18256198
0.18286179
0.183147896
0.183421189
0.18368249
0.183932553
0.184172073
0.184401691
0.184622
0.18483355
0.185036848
0.185232366
0.185420541
0.185601781
0.185776465
0.185944945
0.186107551
0.186264589
0.186416347
0.186563093
0.18670508
0.186842542
0.1869757
0.187104762
0.187229923
0.187351366
0.187469263
0.187583777
0.187695061
0.187803259
0.187908508
0.188010935
0.188110663
0.188207806
0.188302474
0.188394769
0.188484789
0.188572626
0.18865837
0.188742102
0.188823902
0.188903845
0.188982003
0.189058444
0.189133233
0.189206432
0.189278102
0.189348298
0.189417055
0.189484373
0.189550396
0.189615885
0.189681632
0.189742237
0.189777332
)
;

boundaryField
{
    left
    {
        type            wedge;
    }
    right
    {
        type            wedge;
    }
    outerWall
    {
        type            zeroGradient;
    }
    innerWall
    {
        type            zeroGradient;
    }
    frontAndBack
    {
        type            empty;
    }
}


// ************************************************************************* //
