/*--------------------------------*- C++ -*----------------------------------*\
| =========                 |                                                 |
| \\      /  F ield         | OpenFOAM: The Open Source CFD Toolbox           |
|  \\    /   O peration     | Version:  2206                                  |
|   \\  /    A nd           | Website:  www.openfoam.com                      |
|    \\/     M anipulation  |                                                 |
\*---------------------------------------------------------------------------*/
FoamFile
{
    version     2.0;
    format      ascii;
    arch        "LSB;label=32;scalar=64";
    class       surfaceScalarField;
    location    "8472";
    object      phi;
}
// * * * * * * * * * * * * * * * * * * * * * * * * * * * * * * * * * * * * * //

dimensions      [0 3 -1 0 0 0 0];

oriented        oriented;

internalField   nonuniform List<scalar> 
99
(
3.4393671e-10
6.6130866e-10
9.55592878e-10
1.23001551e-09
1.48710825e-09
1.72896627e-09
1.95731444e-09
2.17361591e-09
2.37909484e-09
2.57481653e-09
2.76167879e-09
2.94048336e-09
3.11190578e-09
3.27656666e-09
3.43498453e-09
3.58765202e-09
3.73497347e-09
3.8773484e-09
4.01509597e-09
4.14854687e-09
4.27795501e-09
4.40359922e-09
4.52568267e-09
4.64444435e-09
4.76004724e-09
4.87269951e-09
4.98253171e-09
5.0897278e-09
5.19439188e-09
5.29668869e-09
5.39670059e-09
5.49457688e-09
5.59038158e-09
5.68425177e-09
5.77623609e-09
5.86646145e-09
5.95496334e-09
6.04186061e-09
6.12717747e-09
6.21102598e-09
6.29342051e-09
6.3744678e-09
6.45417363e-09
6.53264015e-09
6.60986555e-09
6.6859484e-09
6.76088026e-09
6.83475652e-09
6.90756269e-09
6.97939191e-09
7.0502243e-09
7.12015084e-09
7.18914677e-09
7.25730161e-09
7.32458618e-09
7.39108857e-09
7.45677555e-09
7.52173435e-09
7.58592806e-09
7.64944298e-09
7.71223871e-09
7.77440115e-09
7.83588678e-09
7.89678091e-09
7.95703704e-09
8.01674043e-09
8.07584187e-09
8.13442621e-09
8.19244182e-09
8.24997334e-09
8.30696687e-09
8.36350721e-09
8.41953773e-09
8.47514431e-09
8.53026728e-09
8.58499352e-09
8.63925997e-09
8.69315567e-09
8.74661454e-09
8.7997259e-09
8.8524218e-09
8.90479179e-09
8.95676851e-09
9.00843738e-09
9.0597339e-09
9.11073911e-09
9.16139485e-09
9.21177315e-09
9.26182185e-09
9.31160526e-09
9.36108398e-09
9.41030401e-09
9.45924247e-09
9.50792979e-09
9.55635687e-09
9.60454578e-09
9.65251975e-09
9.70029518e-09
9.7476471e-09
)
;

boundaryField
{
    left
    {
        type            wedge;
        value           nonuniform List<scalar> 
100
(
1.34138517e-05
1.23779527e-05
1.14775753e-05
1.0702895e-05
1.00271129e-05
9.43280314e-06
8.90604794e-06
8.43602358e-06
8.01410663e-06
7.63333391e-06
7.28802307e-06
6.97349091e-06
6.68584335e-06
6.42181678e-06
6.17865491e-06
5.95401356e-06
5.7458876e-06
5.55255087e-06
5.37250922e-06
5.20446384e-06
5.04727943e-06
4.89995925e-06
4.7616255e-06
4.63150126e-06
4.50889638e-06
4.39319653e-06
4.2838523e-06
4.18037079e-06
4.08230934e-06
3.98926854e-06
3.90088704e-06
3.81683787e-06
3.73682375e-06
3.66057378e-06
3.58784126e-06
3.51840037e-06
3.45204405e-06
3.38858266e-06
3.32784158e-06
3.2696601e-06
3.21388964e-06
3.16039337e-06
3.10904443e-06
3.05972502e-06
3.01232623e-06
2.96674663e-06
2.92289163e-06
2.88067348e-06
2.84001011e-06
2.80082468e-06
2.76304572e-06
2.7266061e-06
2.69144277e-06
2.6574969e-06
2.62471309e-06
2.59303909e-06
2.56242606e-06
2.53282786e-06
2.50420082e-06
2.47650406e-06
2.44969884e-06
2.42374839e-06
2.39861823e-06
2.37427553e-06
2.35068932e-06
2.32783001e-06
2.30566984e-06
2.28418234e-06
2.26334218e-06
2.2431256e-06
2.22350986e-06
2.20447318e-06
2.18599508e-06
2.16805593e-06
2.15063687e-06
2.13372018e-06
2.11728882e-06
2.10132638e-06
2.08581744e-06
2.07074715e-06
2.05610114e-06
2.04186595e-06
2.02802856e-06
2.01457635e-06
2.00149751e-06
1.98878058e-06
1.97641443e-06
1.96438865e-06
1.95269308e-06
1.94131804e-06
1.93025409e-06
1.91949241e-06
1.90902441e-06
1.89884177e-06
1.88893673e-06
1.87930176e-06
1.8699295e-06
1.8608132e-06
1.85194652e-06
1.84332313e-06
)
;
    }
    right
    {
        type            wedge;
        value           nonuniform List<scalar> 
100
(
-1.34141956e-05
-1.23782701e-05
-1.14778696e-05
-1.07031694e-05
-1.002737e-05
-9.43304499e-06
-8.90627629e-06
-8.43623988e-06
-8.01431211e-06
-7.63352963e-06
-7.28820993e-06
-6.97366971e-06
-6.68601477e-06
-6.42198144e-06
-6.17881333e-06
-5.95416622e-06
-5.74603493e-06
-5.55269324e-06
-5.37264697e-06
-5.20459728e-06
-5.04740884e-06
-4.90008489e-06
-4.76174759e-06
-4.63162001e-06
-4.50901199e-06
-4.39330917e-06
-4.28396214e-06
-4.18047798e-06
-4.08241401e-06
-3.98937082e-06
-3.90098706e-06
-3.81693573e-06
-3.73691956e-06
-3.66066764e-06
-3.58793325e-06
-3.51849058e-06
-3.45213256e-06
-3.38866955e-06
-3.32792691e-06
-3.26974393e-06
-3.21397205e-06
-3.16047441e-06
-3.10912414e-06
-3.05980347e-06
-3.01240346e-06
-2.96682269e-06
-2.92296657e-06
-2.88074734e-06
-2.84008292e-06
-2.8008965e-06
-2.76311656e-06
-2.72667601e-06
-2.69151178e-06
-2.65756504e-06
-2.62478039e-06
-2.59310558e-06
-2.56249176e-06
-2.5328928e-06
-2.50426502e-06
-2.47656756e-06
-2.44976165e-06
-2.42381053e-06
-2.39867973e-06
-2.37433641e-06
-2.35074959e-06
-2.32788969e-06
-2.30572896e-06
-2.2842409e-06
-2.26340021e-06
-2.24318311e-06
-2.22356687e-06
-2.2045297e-06
-2.18605112e-06
-2.16811152e-06
-2.15069201e-06
-2.13377489e-06
-2.11734311e-06
-2.10138026e-06
-2.08587093e-06
-2.07080024e-06
-2.05615386e-06
-2.0419183e-06
-2.02808055e-06
-2.014628e-06
-2.00154883e-06
-1.98883157e-06
-1.9764651e-06
-1.96443902e-06
-1.95274315e-06
-1.94136782e-06
-1.93030358e-06
-1.91954162e-06
-1.90907336e-06
-1.89889045e-06
-1.88898516e-06
-1.87934994e-06
-1.86997744e-06
-1.86086091e-06
-1.851994e-06
-1.84337039e-06
)
;
    }
    outerWall
    {
        type            calculated;
        value           uniform 9.79484823e-09;
    }
    innerWall
    {
        type            calculated;
        value           uniform 0;
    }
    frontAndBack
    {
        type            empty;
        value           nonuniform List<scalar> 0();
    }
}


// ************************************************************************* //
