/*--------------------------------*- C++ -*----------------------------------*\
| =========                 |                                                 |
| \\      /  F ield         | OpenFOAM: The Open Source CFD Toolbox           |
|  \\    /   O peration     | Version:  2206                                  |
|   \\  /    A nd           | Website:  www.openfoam.com                      |
|    \\/     M anipulation  |                                                 |
\*---------------------------------------------------------------------------*/
FoamFile
{
    version     2.0;
    format      ascii;
    arch        "LSB;label=32;scalar=64";
    class       volVectorField;
    location    "8472";
    object      U;
}
// * * * * * * * * * * * * * * * * * * * * * * * * * * * * * * * * * * * * * //

dimensions      [0 1 -1 0 0 0 0];

internalField   nonuniform List<vector> 
100
(
(0.0121942711 0.596186473 0)
(-0.00387411363 0.550145337 0)
(0.000933355023 0.510127535 0)
(-0.000127005919 0.47569642 0)
(0.000106925358 0.445660888 0)
(9.136046e-05 0.419246444 0)
(0.000110292396 0.395834502 0)
(0.000121604154 0.374943994 0)
(0.000131132443 0.356191649 0)
(0.000138797124 0.339267983 7.34811302e-20)
(0.000145009406 0.323920441 -7.75647158e-20)
(0.000150032863 0.309940874 0)
(0.000154083053 0.297156214 0)
(0.000157330865 0.285421399 8.70880865e-20)
(0.000159913272 0.274613921 0)
(0.000161941116 0.264629611 0)
(0.000163504735 0.255379332 0)
(0.000164678273 0.246786362 0)
(0.000165522945 0.238784311 0)
(0.000166089598 0.231315436 0)
(0.000166420661 0.224329278 0)
(0.000166551734 0.217781552 0)
(0.000166512796 0.211633227 0)
(0.000166329207 0.205849775 0)
(0.000166022489 0.200400534 0)
(0.000165610983 0.195258187 0)
(0.000165110347 0.190398314 0)
(0.000164534006 0.185799022 0)
(0.000163893486 0.181440624 0)
(0.000163198715 0.177305367 0)
(0.000162458259 0.173377204 0)
(0.000161679524 0.169641589 0)
(0.00016086892 0.166085311 0)
(0.000160032012 0.162696341 0)
(0.000159173631 0.159463701 0)
(0.000158297977 0.156377357 0)
(0.000157408705 0.153428115 0)
(0.000156508999 0.150607536 0)
(0.000155601634 0.147907864 0)
(0.000154689027 0.14532195 0)
(0.000153773286 0.142843203 0)
(0.00015285625 0.14046553 0)
(0.000151939517 0.138183293 0)
(0.000151024484 0.135991266 0)
(0.000150112359 0.133884599 0)
(0.000149204196 0.131858784 0)
(0.000148300908 0.129909626 0)
(0.000147403285 0.128033216 0)
(0.000146512005 0.126225906 0)
(0.000145627655 0.124484289 0)
(0.000144750735 0.122805181 0)
(0.000143881673 0.121185599 0)
(0.000143020826 0.119622746 0)
(0.000142168498 0.118114002 0)
(0.000141324941 0.116656904 0)
(0.00014049036 0.115249137 0)
(0.000139664919 0.113888524 0)
(0.000138848749 0.112573012 0)
(0.000138041949 0.111300668 0)
(0.000137244591 0.11006967 0)
(0.000136456718 0.108878294 0)
(0.000135678357 0.107724913 0)
(0.000134909515 0.106607989 0)
(0.000134150179 0.105526063 0)
(0.000133400323 0.104477758 0)
(0.000132659909 0.103461765 0)
(0.000131928889 0.102476843 7.40702132e-20)
(0.000131207202 0.101521816 0)
(0.000130494778 0.100595565 0)
(0.000129791542 0.0996970279 0)
(0.00012909741 0.0988251928 0)
(0.000128412294 0.0979790983 7.08702109e-20)
(0.000127736101 0.0971578284 0)
(0.000127068737 0.0963605103 0)
(0.000126410099 0.0955863121 0)
(0.000125760088 0.0948344401 -6.84532161e-20)
(0.000125118593 0.0941041367 0)
(0.000124485514 0.0933946788 0)
(0.00012386074 0.092705375 0)
(0.000123244164 0.0920355649 0)
(0.000122635669 0.0913846165 0)
(0.00012203515 0.0907519252 0)
(0.0001214425 0.0901369121 0)
(0.000120857604 0.0895390229 -6.39898123e-20)
(0.000120280347 0.0889577262 0)
(0.000119710621 0.0883925127 0)
(0.000119148342 0.087842894 0)
(0.000118593418 0.0873084013 6.19339986e-20)
(0.00011804563 0.0867885848 0)
(0.000117504439 0.0862830128 0)
(0.000116969811 0.0857912709 0)
(0.000116446012 0.0853129616 5.99878182e-20)
(0.000115943064 0.0848477035 0)
(0.000115439909 0.0843951317 0)
(0.000114784776 0.0839548965 0)
(0.000113829293 0.0835266628 5.81451003e-20)
(0.000113756204 0.0831101092 0)
(0.000118881808 0.08270493 0)
(0.000127425801 0.0823108431 0)
(9.27434572e-05 0.0819275735 0)
)
;

boundaryField
{
    left
    {
        type            wedge;
    }
    right
    {
        type            wedge;
    }
    outerWall
    {
        type            navierSlip;
        value           uniform (0 0.0817439547 0);
        slipLength      uniform 1;
        wallVelocity    uniform (0 0 0);
    }
    innerWall
    {
        type            rotatingWallVelocity;
        origin          (0 0 0);
        axis            (0 0 1);
        omega           constant 12.566;
        value           uniform (0 0.628204307 -0);
    }
    frontAndBack
    {
        type            empty;
    }
}


// ************************************************************************* //
