/*--------------------------------*- C++ -*----------------------------------*\
| =========                 |                                                 |
| \\      /  F ield         | OpenFOAM: The Open Source CFD Toolbox           |
|  \\    /   O peration     | Version:  2206                                  |
|   \\  /    A nd           | Website:  www.openfoam.com                      |
|    \\/     M anipulation  |                                                 |
\*---------------------------------------------------------------------------*/
FoamFile
{
    version     2.0;
    format      ascii;
    arch        "LSB;label=32;scalar=64";
    class       volVectorField;
    location    "470";
    object      U;
}
// * * * * * * * * * * * * * * * * * * * * * * * * * * * * * * * * * * * * * //

dimensions      [0 1 -1 0 0 0 0];

internalField   nonuniform List<vector> 
100000
(
(-7.49517e-12 6.47557e-06 -1.833e-12)
(-6.52041e-12 1.20878e-05 7.06638e-14)
(-8.98938e-12 2.20347e-05 1.45678e-13)
(-1.51764e-11 3.2716e-05 1.52999e-13)
(-1.83917e-11 4.23997e-05 8.86917e-14)
(-1.73964e-11 4.48894e-05 7.50751e-14)
(-2.10057e-11 5.47954e-05 1.421e-13)
(-2.66583e-11 6.56184e-05 1.47811e-13)
(-3.15959e-11 7.64231e-05 1.49665e-13)
(-3.61339e-11 8.61931e-05 8.428e-14)
(-3.42123e-11 8.86171e-05 7.84145e-14)
(-3.86086e-11 9.84966e-05 1.43119e-13)
(-4.38278e-11 0.000109324 1.48648e-13)
(-4.90386e-11 0.000120138 1.4789e-13)
(-5.35064e-11 0.000129932 8.35366e-14)
(-5.15281e-11 0.000132343 7.88488e-14)
(-5.61521e-11 0.00014221 1.44387e-13)
(-6.10152e-11 0.000153037 1.482e-13)
(-6.67617e-11 0.000163855 1.47823e-13)
(-7.05216e-11 0.00017366 8.23765e-14)
(-6.94606e-11 0.000176067 7.99904e-14)
(-7.29467e-11 0.000185928 1.44108e-13)
(-7.92254e-11 0.000196762 1.49795e-13)
(-8.33451e-11 0.000207675 1.51407e-13)
(-8.96514e-11 0.000218502 1.48077e-13)
(-9.31658e-11 0.000228315 8.36335e-14)
(-9.20407e-11 0.00023072 8.02691e-14)
(-9.58189e-11 0.000240575 1.46515e-13)
(-1.0156e-10 0.000251401 1.49517e-13)
(-1.06454e-10 0.000262221 1.48385e-13)
(-1.11132e-10 0.000272038 8.2632e-14)
(-1.09052e-10 0.000274442 8.08801e-14)
(-1.13629e-10 0.000284294 1.46029e-13)
(-1.18709e-10 0.00029512 1.49695e-13)
(-1.24147e-10 0.000305941 1.47757e-13)
(-1.28372e-10 0.00031576 8.26415e-14)
(-1.26673e-10 0.000318164 8.07198e-14)
(-1.30939e-10 0.000328013 1.46175e-13)
(-1.36276e-10 0.000338839 1.49407e-13)
(-1.415e-10 0.000349661 1.47636e-13)
(-1.45899e-10 0.000359481 8.23572e-14)
(-1.44061e-10 0.000361885 8.0842e-14)
(-1.48444e-10 0.000371733 1.46082e-13)
(-1.53686e-10 0.000382558 1.49356e-13)
(-1.58985e-10 0.00039338 1.47399e-13)
(-1.63323e-10 0.000403203 8.22581e-14)
(-1.61536e-10 0.000405606 8.08334e-14)
(-1.65884e-10 0.000415452 1.461e-13)
(-1.7115e-10 0.000426278 1.49238e-13)
(-1.76433e-10 0.0004371 1.47279e-13)
(-1.80776e-10 0.000446924 8.21149e-14)
(-1.78997e-10 0.000449327 8.08862e-14)
(-1.8333e-10 0.000459172 1.46056e-13)
(-1.8862e-10 0.000469998 1.49198e-13)
(-1.93867e-10 0.00048082 1.47122e-13)
(-1.98256e-10 0.000490645 8.20607e-14)
(-1.9642e-10 0.000493048 8.08608e-14)
(-2.00827e-10 0.000502892 1.46096e-13)
(-2.06025e-10 0.000513717 1.49078e-13)
(-2.11384e-10 0.00052454 1.47093e-13)
(-2.15636e-10 0.000534366 8.18971e-14)
(-2.13967e-10 0.000536768 8.09786e-14)
(-2.18175e-10 0.000546612 1.45966e-13)
(-2.23612e-10 0.000557437 1.49172e-13)
(-2.28683e-10 0.00056826 1.46835e-13)
(-2.3328e-10 0.000578086 8.20365e-14)
(-2.31199e-10 0.000580489 8.07467e-14)
(-2.35902e-10 0.000590332 1.46252e-13)
(-2.40746e-10 0.000601157 1.48777e-13)
(-2.46527e-10 0.00061198 1.47184e-13)
(-2.50272e-10 0.000621807 8.14746e-14)
(-2.49212e-10 0.00062421 8.13687e-14)
(-2.52695e-10 0.000634053 1.45556e-13)
(-2.59004e-10 0.000644885 1.50313e-13)
(-2.63112e-10 0.000655799 1.50823e-13)
(-2.69427e-10 0.000666629 1.46778e-13)
(-2.72924e-10 0.000676458 8.25025e-14)
(-2.71836e-10 0.00067886 8.08273e-14)
(-2.75596e-10 0.000688702 1.46808e-13)
(-2.81361e-10 0.000699527 1.49159e-13)
(-2.86229e-10 0.00071035 1.47425e-13)
(-2.90924e-10 0.000720178 8.18035e-14)
(-2.88841e-10 0.000722581 8.13488e-14)
(-2.93431e-10 0.000732422 1.46336e-13)
(-2.98504e-10 0.000743247 1.49468e-13)
(-3.03948e-10 0.00075407 1.47049e-13)
(-3.08162e-10 0.000763899 8.20023e-14)
(-3.06481e-10 0.000766301 8.11355e-14)
(-3.10737e-10 0.000776142 1.46478e-13)
(-3.1609e-10 0.000786967 1.49277e-13)
(-3.21297e-10 0.00079779 1.47099e-13)
(-3.2571e-10 0.000807619 8.18615e-14)
(-3.23862e-10 0.000810022 8.1207e-14)
(-3.28262e-10 0.000819862 1.4639e-13)
(-3.33489e-10 0.000830687 1.49282e-13)
(-3.38806e-10 0.00084151 1.47003e-13)
(-3.43121e-10 0.00085134 8.18465e-14)
(-3.41364e-10 0.000853742 8.11854e-14)
(-3.45679e-10 0.000863582 1.46374e-13)
(-3.50988e-10 0.000874407 1.49243e-13)
(-3.56221e-10 0.000885231 1.46941e-13)
(-3.60622e-10 0.00089506 8.18272e-14)
(-3.58775e-10 0.000897462 8.11539e-14)
(-3.6319e-10 0.000907302 1.4639e-13)
(-3.68386e-10 0.000918127 1.49158e-13)
(-3.73748e-10 0.000928951 1.46955e-13)
(-3.77999e-10 0.00093878 8.17166e-14)
(-3.76328e-10 0.000941183 8.12445e-14)
(-3.80537e-10 0.000951023 1.46256e-13)
(-3.85978e-10 0.000961847 1.49266e-13)
(-3.91048e-10 0.000972671 1.46742e-13)
(-3.95645e-10 0.000982501 8.18896e-14)
(-3.93562e-10 0.000984903 8.0996e-14)
(-3.98265e-10 0.000994743 1.46532e-13)
(-4.03114e-10 0.00100557 1.48883e-13)
(-4.08892e-10 0.00101639 1.47126e-13)
(-4.12641e-10 0.00102622 8.13525e-14)
(-4.11574e-10 0.00102862 8.16081e-14)
(-4.15061e-10 0.00103846 1.45819e-13)
(-4.21371e-10 0.0010493 1.50434e-13)
(-4.2548e-10 0.00106021 1.50748e-13)
(-4.31794e-10 0.00107104 1.46571e-13)
(-4.35289e-10 0.00108087 8.23073e-14)
(-4.34205e-10 0.00108327 8.09524e-14)
(-4.37964e-10 0.00109311 1.46894e-13)
(-4.43731e-10 0.00110394 1.49114e-13)
(-4.48597e-10 0.00111476 1.47251e-13)
(-4.53292e-10 0.00112459 8.16411e-14)
(-4.5121e-10 0.00112699 8.1469e-14)
(-4.558e-10 0.00113683 1.46431e-13)
(-4.60876e-10 0.00114766 1.49444e-13)
(-4.66316e-10 0.00115848 1.46906e-13)
(-4.70533e-10 0.00116831 8.18661e-14)
(-4.68849e-10 0.00117071 8.12502e-14)
(-4.73109e-10 0.00118055 1.46584e-13)
(-4.78458e-10 0.00119138 1.49266e-13)
(-4.83671e-10 0.0012022 1.4699e-13)
(-4.88076e-10 0.00121203 8.1738e-14)
(-4.86238e-10 0.00121443 8.13285e-14)
(-4.90626e-10 0.00122427 1.4649e-13)
(-4.9587e-10 0.0012351 1.49299e-13)
(-5.01167e-10 0.00124592 1.46902e-13)
(-5.05504e-10 0.00125575 8.17598e-14)
(-5.0372e-10 0.00125816 8.12814e-14)
(-5.08068e-10 0.00126799 1.46506e-13)
(-5.1334e-10 0.00127882 1.49239e-13)
(-5.18619e-10 0.00128964 1.46899e-13)
(-5.22964e-10 0.00129947 8.17081e-14)
(-5.21183e-10 0.00130188 8.13041e-14)
(-5.25518e-10 0.00131171 1.46457e-13)
(-5.30812e-10 0.00132254 1.49246e-13)
(-5.36058e-10 0.00133336 1.46832e-13)
(-5.40447e-10 0.00134319 8.17274e-14)
(-5.3861e-10 0.0013456 8.12522e-14)
(-5.43017e-10 0.00135543 1.46492e-13)
(-5.48222e-10 0.00136626 1.49161e-13)
(-5.53577e-10 0.00137708 1.46875e-13)
(-5.57833e-10 0.00138691 8.16222e-14)
(-5.56157e-10 0.00138932 8.13484e-14)
(-5.6037e-10 0.00139915 1.46354e-13)
(-5.65808e-10 0.00140998 1.49284e-13)
(-5.70881e-10 0.0014208 1.46674e-13)
(-5.75476e-10 0.00143063 8.18118e-14)
(-5.73394e-10 0.00143304 8.1094e-14)
(-5.78095e-10 0.00144287 1.46637e-13)
(-5.82948e-10 0.0014537 1.48905e-13)
(-5.88723e-10 0.00146452 1.47076e-13)
(-5.92474e-10 0.00147435 8.12817e-14)
(-5.91405e-10 0.00147676 8.17086e-14)
(-5.94893e-10 0.0014866 1.4592e-13)
(-6.01204e-10 0.00149743 1.50468e-13)
(-6.05313e-10 0.00150834 1.50688e-13)
(-6.11627e-10 0.00151917 1.46449e-13)
(-6.1512e-10 0.001529 8.21985e-14)
(-6.14039e-10 0.00153141 8.10023e-14)
(-6.17797e-10 0.00154124 1.46913e-13)
(-6.23565e-10 0.00155207 1.4907e-13)
(-6.28428e-10 0.00156289 1.4714e-13)
(-6.33126e-10 0.00157272 8.1548e-14)
(-6.31043e-10 0.00157513 8.15164e-14)
(-6.35635e-10 0.00158497 1.4646e-13)
(-6.40708e-10 0.00159579 1.49407e-13)
(-6.46151e-10 0.00160661 1.46813e-13)
(-6.50364e-10 0.00161645 8.17796e-14)
(-6.48686e-10 0.00161885 8.13027e-14)
(-6.5294e-10 0.00162869 1.46614e-13)
(-6.58296e-10 0.00163951 1.49244e-13)
(-6.635e-10 0.00165033 1.46904e-13)
(-6.67914e-10 0.00166017 8.16684e-14)
(-6.66067e-10 0.00166257 8.13726e-14)
(-6.70467e-10 0.00167241 1.46536e-13)
(-6.75696e-10 0.00168323 1.49272e-13)
(-6.81011e-10 0.00169405 1.46843e-13)
(-6.85326e-10 0.00170389 8.16794e-14)
(-6.83569e-10 0.00170629 8.13488e-14)
(-6.87884e-10 0.00171613 1.46528e-13)
(-6.93196e-10 0.00172695 1.49253e-13)
(-6.98428e-10 0.00173777 1.46811e-13)
(-7.02828e-10 0.00174761 8.16822e-14)
(-7.00981e-10 0.00175001 8.13155e-14)
(-7.05396e-10 0.00175985 1.46551e-13)
(-7.10595e-10 0.00177067 1.49185e-13)
(-7.15955e-10 0.00178149 1.46851e-13)
(-7.20207e-10 0.00179133 8.15912e-14)
(-7.18534e-10 0.00179373 8.14042e-14)
(-7.22744e-10 0.00180357 1.46421e-13)
(-7.28186e-10 0.00181439 1.49307e-13)
(-7.33257e-10 0.00182521 1.4666e-13)
(-7.37853e-10 0.00183505 8.17823e-14)
(-7.3577e-10 0.00183745 8.11523e-14)
(-7.40471e-10 0.00184729 1.46704e-13)
(-7.45324e-10 0.00185811 1.48935e-13)
(-7.511e-10 0.00186893 1.47068e-13)
(-7.54851e-10 0.00187877 8.12569e-14)
(-7.53781e-10 0.00188117 8.17669e-14)
(-7.57269e-10 0.00189101 1.45988e-13)
(-7.6358e-10 0.00190184 1.50501e-13)
(-7.6769e-10 0.00191275 1.50675e-13)
(-7.74003e-10 0.00192358 1.46403e-13)
(-7.77496e-10 0.00193342 8.21536e-14)
(-7.76416e-10 0.00193582 8.10357e-14)
(-7.80173e-10 0.00194566 1.4694e-13)
(-7.85942e-10 0.00195648 1.49062e-13)
(-7.90805e-10 0.0019673 1.47101e-13)
(-7.95502e-10 0.00197714 8.15079e-14)
(-7.9342e-10 0.00197954 8.15512e-14)
(-7.98011e-10 0.00198938 1.46489e-13)
(-8.03086e-10 0.0020002 1.49407e-13)
(-8.08526e-10 0.00201103 1.46778e-13)
(-8.12742e-10 0.00202086 8.17466e-14)
(-8.1106e-10 0.00202326 8.13347e-14)
(-8.1532e-10 0.0020331 1.4665e-13)
(-8.2067e-10 0.00204392 1.49243e-13)
(-8.25881e-10 0.00205475 1.4688e-13)
(-8.30286e-10 0.00206458 8.16318e-14)
(-8.28449e-10 0.00206698 8.14144e-14)
(-8.32836e-10 0.00207682 1.46563e-13)
(-8.38081e-10 0.00208764 1.49288e-13)
(-8.43378e-10 0.00209847 1.46809e-13)
(-8.47715e-10 0.0021083 8.16654e-14)
(-8.45932e-10 0.0021107 8.13684e-14)
(-8.50278e-10 0.00212054 1.46585e-13)
(-8.55552e-10 0.00213136 1.49239e-13)
(-8.6083e-10 0.00214219 1.46821e-13)
(-8.65175e-10 0.00215202 8.16245e-14)
(-8.63394e-10 0.00215442 8.13921e-14)
(-8.6773e-10 0.00216426 1.46542e-13)
(-8.73024e-10 0.00217508 1.49256e-13)
(-8.7827e-10 0.00218591 1.46768e-13)
(-8.82659e-10 0.00219574 8.16535e-14)
(-8.80822e-10 0.00219814 8.13409e-14)
(-8.85228e-10 0.00220798 1.46582e-13)
(-8.90434e-10 0.0022188 1.4918e-13)
(-8.95788e-10 0.00222963 1.46824e-13)
(-9.00045e-10 0.00223946 8.1557e-14)
(-8.98368e-10 0.00224186 8.14376e-14)
(-9.02582e-10 0.0022517 1.46449e-13)
(-9.08021e-10 0.00226252 1.49311e-13)
(-9.13094e-10 0.00227335 1.46633e-13)
(-9.17688e-10 0.00228318 8.17551e-14)
(-9.15606e-10 0.00228558 8.1183e-14)
(-9.20306e-10 0.00229542 1.46736e-13)
(-9.25161e-10 0.00230624 1.48939e-13)
(-9.30935e-10 0.00231707 1.47048e-13)
(-9.34688e-10 0.0023269 8.12304e-14)
(-9.33616e-10 0.0023293 8.18004e-14)
(-9.37106e-10 0.00233914 1.46019e-13)
(-9.43417e-10 0.00234997 1.5051e-13)
(-9.47526e-10 0.00236089 1.5065e-13)
(-9.53839e-10 0.00237172 1.46357e-13)
(-9.57332e-10 0.00238155 8.21127e-14)
(-9.56253e-10 0.00238395 8.10523e-14)
(-9.60009e-10 0.00239379 1.46943e-13)
(-9.65779e-10 0.00240461 1.49044e-13)
(-9.7064e-10 0.00241544 1.47057e-13)
(-9.75339e-10 0.00242527 8.14726e-14)
(-9.73256e-10 0.00242767 8.15665e-14)
(-9.77849e-10 0.00243751 1.46498e-13)
(-9.82921e-10 0.00244833 1.49389e-13)
(-9.88364e-10 0.00245916 1.46741e-13)
(-9.92576e-10 0.00246899 8.1711e-14)
(-9.90899e-10 0.00247139 8.13547e-14)
(-9.95153e-10 0.00248123 1.46656e-13)
(-1.00051e-09 0.00249205 1.49234e-13)
(-1.00571e-09 0.00250288 1.46842e-13)
(-1.01013e-09 0.00251271 8.16066e-14)
(-1.00828e-09 0.00251511 8.14261e-14)
(-1.01268e-09 0.00252495 1.46583e-13)
(-1.01791e-09 0.00253577 1.49269e-13)
(-1.02322e-09 0.0025466 1.4679e-13)
(-1.02754e-09 0.00255643 8.1624e-14)
(-1.02578e-09 0.00255883 8.14036e-14)
(-1.0301e-09 0.00256867 1.4658e-13)
(-1.03541e-09 0.00257949 1.49256e-13)
(-1.04064e-09 0.00259032 1.46766e-13)
(-1.04504e-09 0.00260015 8.16325e-14)
(-1.04319e-09 0.00260255 8.13715e-14)
(-1.04761e-09 0.00261239 1.46606e-13)
(-1.05281e-09 0.00262321 1.49194e-13)
(-1.05817e-09 0.00263404 1.46814e-13)
(-1.06242e-09 0.00264387 8.15469e-14)
(-1.06075e-09 0.00264627 8.14612e-14)
(-1.06496e-09 0.00265611 1.4648e-13)
(-1.0704e-09 0.00266693 1.49322e-13)
(-1.07547e-09 0.00267776 1.46631e-13)
(-1.08007e-09 0.00268759 8.17432e-14)
(-1.07798e-09 0.00268999 8.12098e-14)
(-1.08268e-09 0.00269983 1.46767e-13)
(-1.08754e-09 0.00271065 1.48954e-13)
(-1.09331e-09 0.00272148 1.47046e-13)
(-1.09707e-09 0.00273131 8.12211e-14)
(-1.09599e-09 0.00273371 8.18268e-14)
(-1.09948e-09 0.00274355 1.46051e-13)
(-1.10579e-09 0.00275438 1.50527e-13)
(-1.1099e-09 0.0027653 1.50647e-13)
(-1.11622e-09 0.00277613 1.46338e-13)
(-1.11971e-09 0.00278596 8.20943e-14)
(-1.11863e-09 0.00278836 8.10681e-14)
(-1.12239e-09 0.0027982 1.46958e-13)
(-1.12816e-09 0.00280903 1.49042e-13)
(-1.13302e-09 0.00281985 1.47041e-13)
(-1.13772e-09 0.00282968 8.14551e-14)
(-1.13563e-09 0.00283208 8.1584e-14)
(-1.14023e-09 0.00284192 1.46512e-13)
(-1.1453e-09 0.00285275 1.49391e-13)
(-1.15074e-09 0.00286357 1.46726e-13)
(-1.15496e-09 0.0028734 8.16982e-14)
(-1.15328e-09 0.0028758 8.13692e-14)
(-1.15753e-09 0.00288564 1.46677e-13)
(-1.16288e-09 0.00289647 1.49233e-13)
(-1.1681e-09 0.00290729 1.46835e-13)
(-1.1725e-09 0.00291712 8.15877e-14)
(-1.17066e-09 0.00291952 8.14502e-14)
(-1.17505e-09 0.00292936 1.46594e-13)
(-1.1803e-09 0.00294019 1.49283e-13)
(-1.18559e-09 0.00295101 1.4677e-13)
(-1.18993e-09 0.00296084 8.16254e-14)
(-1.18815e-09 0.00296325 8.14054e-14)
(-1.19249e-09 0.00297308 1.46619e-13)
(-1.19777e-09 0.00298391 1.49239e-13)
(-1.20304e-09 0.00299473 1.46788e-13)
(-1.20739e-09 0.00300456 8.15883e-14)
(-1.20561e-09 0.00300697 8.14302e-14)
(-1.20994e-09 0.0030168 1.46579e-13)
(-1.21524e-09 0.00302763 1.4926e-13)
(-1.22049e-09 0.00303845 1.4674e-13)
(-1.22487e-09 0.00304828 8.16209e-14)
(-1.22304e-09 0.00305069 8.138e-14)
(-1.22744e-09 0.00306052 1.46622e-13)
(-1.23265e-09 0.00307135 1.49188e-13)
(-1.238e-09 0.00308217 1.46801e-13)
(-1.24226e-09 0.003092 8.15278e-14)
(-1.24058e-09 0.00309441 8.14778e-14)
(-1.2448e-09 0.00310424 1.46491e-13)
(-1.25024e-09 0.00311507 1.49323e-13)
(-1.25531e-09 0.00312589 1.46615e-13)
(-1.2599e-09 0.00313572 8.17293e-14)
(-1.25782e-09 0.00313813 8.12237e-14)
(-1.26252e-09 0.00314796 1.46782e-13)
(-1.26738e-09 0.00315879 1.48954e-13)
(-1.27315e-09 0.00316961 1.47034e-13)
(-1.2769e-09 0.00317944 8.12066e-14)
(-1.27583e-09 0.00318185 8.18431e-14)
(-1.27932e-09 0.00319168 1.46065e-13)
(-1.28563e-09 0.00320251 1.5053e-13)
(-1.28974e-09 0.00321343 1.50633e-13)
(-1.29605e-09 0.00322426 1.46313e-13)
(-1.29955e-09 0.00323409 8.20723e-14)
(-1.29847e-09 0.0032365 8.1076e-14)
(-1.30222e-09 0.00324633 1.46958e-13)
(-1.308e-09 0.00325716 1.49031e-13)
(-1.31286e-09 0.00326798 1.47017e-13)
(-1.31755e-09 0.00327781 8.14365e-14)
(-1.31547e-09 0.00328022 8.15905e-14)
(-1.32006e-09 0.00329005 1.46516e-13)
(-1.32514e-09 0.00330088 1.4938e-13)
(-1.33058e-09 0.0033117 1.46706e-13)
(-1.33479e-09 0.00332153 8.16777e-14)
(-1.33312e-09 0.00332394 8.13801e-14)
(-1.33737e-09 0.00333377 1.46677e-13)
(-1.34273e-09 0.0033446 1.49229e-13)
(-1.34793e-09 0.00335542 1.46811e-13)
(-1.35234e-09 0.00336526 8.15762e-14)
(-1.3505e-09 0.00336766 8.14526e-14)
(-1.3549e-09 0.00337749 1.46606e-13)
(-1.36013e-09 0.00338832 1.49267e-13)
(-1.36544e-09 0.00339914 1.46763e-13)
(-1.36975e-09 0.00340898 8.15963e-14)
(-1.368e-09 0.00341138 8.1431e-14)
(-1.37231e-09 0.00342121 1.46606e-13)
(-1.37763e-09 0.00343204 1.49257e-13)
(-1.38286e-09 0.00344286 1.46744e-13)
(-1.38726e-09 0.0034527 8.16074e-14)
(-1.38541e-09 0.0034551 8.13999e-14)
(-1.38983e-09 0.00346493 1.46635e-13)
(-1.39503e-09 0.00347576 1.49199e-13)
(-1.40038e-09 0.00348658 1.46795e-13)
(-1.40464e-09 0.00349642 8.15241e-14)
(-1.40296e-09 0.00349882 8.14905e-14)
(-1.40717e-09 0.00350865 1.46511e-13)
(-1.41262e-09 0.00351948 1.4933e-13)
(-1.41769e-09 0.0035303 1.46615e-13)
(-1.42228e-09 0.00354014 8.1723e-14)
(-1.4202e-09 0.00354254 8.12396e-14)
(-1.4249e-09 0.00355237 1.46799e-13)
(-1.42976e-09 0.0035632 1.48964e-13)
(-1.43553e-09 0.00357402 1.47034e-13)
(-1.43928e-09 0.00358386 8.12023e-14)
(-1.43821e-09 0.00358626 8.18583e-14)
(-1.4417e-09 0.0035961 1.46085e-13)
(-1.44801e-09 0.00360693 1.5054e-13)
(-1.45212e-09 0.00361784 1.50632e-13)
(-1.45843e-09 0.00362867 1.46304e-13)
(-1.46193e-09 0.00363851 8.20627e-14)
(-1.46085e-09 0.00364091 8.10853e-14)
(-1.4646e-09 0.00365075 1.46967e-13)
(-1.47037e-09 0.00366157 1.49031e-13)
(-1.47523e-09 0.00367239 1.47009e-13)
(-1.47993e-09 0.00368223 8.14268e-14)
(-1.47785e-09 0.00368463 8.16016e-14)
(-1.48244e-09 0.00369447 1.46525e-13)
(-1.48752e-09 0.00370529 1.49383e-13)
(-1.49296e-09 0.00371611 1.46698e-13)
(-1.49717e-09 0.00372595 8.16719e-14)
(-1.49549e-09 0.00372835 8.1388e-14)
(-1.49975e-09 0.00373819 1.46691e-13)
(-1.5051e-09 0.00374901 1.49228e-13)
(-1.51031e-09 0.00375983 1.4681e-13)
(-1.51472e-09 0.00376967 8.15636e-14)
(-1.51288e-09 0.00377207 8.14699e-14)
(-1.51727e-09 0.00378191 1.4661e-13)
(-1.52251e-09 0.00379273 1.4928e-13)
(-1.52781e-09 0.00380355 1.46748e-13)
(-1.53215e-09 0.00381339 8.16034e-14)
(-1.53036e-09 0.00381579 8.1426e-14)
(-1.53471e-09 0.00382563 1.46638e-13)
(-1.53998e-09 0.00383645 1.49239e-13)
(-1.54526e-09 0.00384727 1.46769e-13)
(-1.54961e-09 0.00385711 8.15682e-14)
(-1.54782e-09 0.00385951 8.14516e-14)
(-1.55216e-09 0.00386935 1.466e-13)
(-1.55746e-09 0.00388017 1.49263e-13)
(-1.5627e-09 0.00389099 1.46724e-13)
(-1.56709e-09 0.00390083 8.16026e-14)
(-1.56525e-09 0.00390323 8.14021e-14)
(-1.56966e-09 0.00391307 1.46645e-13)
(-1.57487e-09 0.00392389 1.49193e-13)
(-1.58022e-09 0.00393471 1.46788e-13)
(-1.58448e-09 0.00394455 8.15113e-14)
(-1.5828e-09 0.00394695 8.15006e-14)
(-1.58701e-09 0.00395679 1.46515e-13)
(-1.59245e-09 0.00396761 1.4933e-13)
(-1.59753e-09 0.00397843 1.46605e-13)
(-1.60212e-09 0.00398827 8.17145e-14)
(-1.60004e-09 0.00399067 8.1247e-14)
(-1.60474e-09 0.00400051 1.46808e-13)
(-1.60959e-09 0.00401133 1.48963e-13)
(-1.61537e-09 0.00402216 1.47027e-13)
(-1.61912e-09 0.00403199 8.11929e-14)
(-1.61805e-09 0.00403439 8.18677e-14)
(-1.62154e-09 0.00404423 1.46092e-13)
(-1.62785e-09 0.00405506 1.50541e-13)
(-1.63196e-09 0.00406597 1.50622e-13)
(-1.63827e-09 0.0040768 1.46288e-13)
(-1.64176e-09 0.00408664 8.20487e-14)
(-1.64069e-09 0.00408904 8.10898e-14)
(-1.64444e-09 0.00409888 1.46966e-13)
(-1.65021e-09 0.0041097 1.49024e-13)
(-1.65507e-09 0.00412053 1.46993e-13)
(-1.65977e-09 0.00413036 8.14153e-14)
(-1.65769e-09 0.00413276 8.16047e-14)
(-1.66228e-09 0.0041426 1.46526e-13)
(-1.66735e-09 0.00415342 1.49375e-13)
(-1.6728e-09 0.00416425 1.46686e-13)
(-1.67701e-09 0.00417408 8.1658e-14)
(-1.67533e-09 0.00417648 8.13952e-14)
(-1.67959e-09 0.00418632 1.46689e-13)
(-1.68494e-09 0.00419714 1.49226e-13)
(-1.69014e-09 0.00420797 1.46793e-13)
(-1.69456e-09 0.0042178 8.15581e-14)
(-1.69271e-09 0.0042202 8.14684e-14)
(-1.69711e-09 0.00423004 1.4662e-13)
(-1.70234e-09 0.00424086 1.49266e-13)
(-1.70766e-09 0.00425169 1.46747e-13)
(-1.71197e-09 0.00426152 8.15797e-14)
(-1.71021e-09 0.00426392 8.14475e-14)
(-1.71453e-09 0.00427376 1.46622e-13)
(-1.71984e-09 0.00428458 1.49258e-13)
(-1.72507e-09 0.00429541 1.4673e-13)
(-1.72947e-09 0.00430524 8.15922e-14)
(-1.72763e-09 0.00430764 8.14171e-14)
(-1.73204e-09 0.00431748 1.46652e-13)
(-1.73724e-09 0.0043283 1.49202e-13)
(-1.7426e-09 0.00433913 1.46784e-13)
(-1.74685e-09 0.00434896 8.15104e-14)
(-1.74518e-09 0.00435136 8.15083e-14)
(-1.74939e-09 0.0043612 1.46529e-13)
(-1.75483e-09 0.00437202 1.49335e-13)
(-1.7599e-09 0.00438285 1.46606e-13)
(-1.7645e-09 0.00439268 8.17106e-14)
(-1.76242e-09 0.00439508 8.12579e-14)
(-1.76712e-09 0.00440492 1.4682e-13)
(-1.77197e-09 0.00441574 1.4897e-13)
(-1.77775e-09 0.00442657 1.47027e-13)
(-1.7815e-09 0.0044364 8.11908e-14)
(-1.78043e-09 0.0044388 8.18777e-14)
(-1.78392e-09 0.00444864 1.46105e-13)
(-1.79023e-09 0.00445947 1.50548e-13)
(-1.79434e-09 0.00447039 1.50623e-13)
(-1.80065e-09 0.00448122 1.46283e-13)
(-1.80414e-09 0.00449105 8.20432e-14)
(-1.80306e-09 0.00449345 8.1096e-14)
(-1.80682e-09 0.00450329 1.46973e-13)
(-1.81259e-09 0.00451411 1.49024e-13)
(-1.81745e-09 0.00452494 1.4699e-13)
(-1.82215e-09 0.00453477 8.14092e-14)
(-1.82007e-09 0.00453717 8.16127e-14)
(-1.82466e-09 0.00454701 1.46532e-13)
(-1.82973e-09 0.00455783 1.49378e-13)
(-1.83517e-09 0.00456866 1.4668e-13)
(-1.83939e-09 0.00457849 8.16555e-14)
(-1.83771e-09 0.00458089 8.13997e-14)
(-1.84197e-09 0.00459073 1.467e-13)
(-1.84732e-09 0.00460155 1.49225e-13)
(-1.85253e-09 0.00461238 1.46795e-13)
(-1.85693e-09 0.00462221 8.15484e-14)
(-1.8551e-09 0.00462461 8.14823e-14)
(-1.85948e-09 0.00463445 1.46621e-13)
(-1.86473e-09 0.00464527 1.49279e-13)
(-1.87002e-09 0.0046561 1.46734e-13)
(-1.87436e-09 0.00466593 8.15894e-14)
(-1.87258e-09 0.00466833 8.1439e-14)
(-1.87693e-09 0.00467817 1.4665e-13)
(-1.8822e-09 0.00468899 1.49239e-13)
(-1.88748e-09 0.00469982 1.46757e-13)
(-1.89182e-09 0.00470965 8.15554e-14)
(-1.89004e-09 0.00471205 8.14652e-14)
(-1.89438e-09 0.00472189 1.46613e-13)
(-1.89967e-09 0.00473271 1.49264e-13)
(-1.90492e-09 0.00474354 1.46714e-13)
(-1.90931e-09 0.00475337 8.15909e-14)
(-1.90747e-09 0.00475577 8.14163e-14)
(-1.91188e-09 0.00476561 1.46659e-13)
(-1.91708e-09 0.00477643 1.49196e-13)
(-1.92244e-09 0.00478726 1.46779e-13)
(-1.92669e-09 0.00479709 8.15006e-14)
(-1.92502e-09 0.00479949 8.15154e-14)
(-1.92923e-09 0.00480933 1.46531e-13)
(-1.93467e-09 0.00482016 1.49335e-13)
(-1.93974e-09 0.00483098 1.46598e-13)
(-1.94434e-09 0.00484081 8.1705e-14)
(-1.94225e-09 0.00484322 8.12622e-14)
(-1.94695e-09 0.00485305 1.46825e-13)
(-1.95181e-09 0.00486388 1.48969e-13)
(-1.95758e-09 0.0048747 1.47022e-13)
(-1.96134e-09 0.00488453 8.1184e-14)
(-1.96026e-09 0.00488694 8.18838e-14)
(-1.96375e-09 0.00489677 1.4611e-13)
(-1.97007e-09 0.0049076 1.50549e-13)
(-1.97417e-09 0.00491852 1.50616e-13)
(-1.98049e-09 0.00492935 1.46272e-13)
(-1.98398e-09 0.00493918 8.20333e-14)
(-1.9829e-09 0.00494159 8.10989e-14)
(-1.98666e-09 0.00495142 1.46971e-13)
(-1.99243e-09 0.00496225 1.49019e-13)
(-1.99729e-09 0.00497307 1.46978e-13)
(-2.00199e-09 0.0049829 8.14014e-14)
(-1.9999e-09 0.00498531 8.1614e-14)
(-2.0045e-09 0.00499514 1.46533e-13)
(-2.00957e-09 0.00500597 1.49371e-13)
(-2.01501e-09 0.00501679 1.46672e-13)
(-2.01922e-09 0.00502662 8.1645e-14)
(-2.01755e-09 0.00502903 8.14051e-14)
(-2.0218e-09 0.00503886 1.46697e-13)
(-2.02716e-09 0.00504969 1.49224e-13)
(-2.03236e-09 0.00506051 1.46781e-13)
(-2.03678e-09 0.00507034 8.15461e-14)
(-2.03493e-09 0.00507275 8.14789e-14)
(-2.03933e-09 0.00508258 1.4663e-13)
(-2.04456e-09 0.00509341 1.49265e-13)
(-2.04987e-09 0.00510423 1.46737e-13)
(-2.05419e-09 0.00511406 8.15686e-14)
(-2.05243e-09 0.00511647 8.14585e-14)
(-2.05675e-09 0.0051263 1.46632e-13)
(-2.06206e-09 0.00513713 1.49259e-13)
(-2.06729e-09 0.00514795 1.46721e-13)
(-2.07169e-09 0.00515778 8.15821e-14)
(-2.06984e-09 0.00516019 8.14285e-14)
(-2.07426e-09 0.00517002 1.46663e-13)
(-2.07946e-09 0.00518085 1.49204e-13)
(-2.08482e-09 0.00519167 1.46776e-13)
(-2.08907e-09 0.0052015 8.15011e-14)
(-2.0874e-09 0.00520391 8.15203e-14)
(-2.09161e-09 0.00521374 1.46542e-13)
(-2.09705e-09 0.00522457 1.49338e-13)
(-2.10212e-09 0.00523539 1.466e-13)
(-2.10672e-09 0.00524523 8.17022e-14)
(-2.10463e-09 0.00524763 8.12703e-14)
(-2.10933e-09 0.00525746 1.46833e-13)
(-2.11419e-09 0.00526829 1.48974e-13)
(-2.11996e-09 0.00527911 1.47023e-13)
(-2.12372e-09 0.00528895 8.1183e-14)
(-2.12264e-09 0.00529135 8.18909e-14)
(-2.12613e-09 0.00530118 1.46119e-13)
(-2.13244e-09 0.00531202 1.50554e-13)
(-2.13655e-09 0.00532293 1.50617e-13)
(-2.14287e-09 0.00533376 1.46268e-13)
(-2.14636e-09 0.0053436 8.20299e-14)
(-2.14528e-09 0.005346 8.11033e-14)
(-2.14904e-09 0.00535583 1.46977e-13)
(-2.15481e-09 0.00536666 1.4902e-13)
(-2.15967e-09 0.00537748 1.46976e-13)
(-2.16437e-09 0.00538732 8.13972e-14)
(-2.16228e-09 0.00538972 8.16202e-14)
(-2.16688e-09 0.00539955 1.46538e-13)
(-2.17195e-09 0.00541038 1.49375e-13)
(-2.17739e-09 0.0054212 1.46668e-13)
(-2.18161e-09 0.00543104 8.16442e-14)
(-2.17992e-09 0.00543344 8.14078e-14)
(-2.18418e-09 0.00544327 1.46707e-13)
(-2.18953e-09 0.0054541 1.49222e-13)
(-2.19474e-09 0.00546492 1.46784e-13)
(-2.19915e-09 0.00547476 8.1538e-14)
(-2.19731e-09 0.00547716 8.14908e-14)
(-2.2017e-09 0.00548699 1.46628e-13)
(-2.20695e-09 0.00549782 1.49278e-13)
(-2.21224e-09 0.00550864 1.46725e-13)
(-2.21658e-09 0.00551848 8.15797e-14)
(-2.2148e-09 0.00552088 8.1448e-14)
(-2.21914e-09 0.00553071 1.46658e-13)
(-2.22442e-09 0.00554154 1.49239e-13)
(-2.22969e-09 0.00555236 1.46749e-13)
(-2.23404e-09 0.0055622 8.15465e-14)
(-2.23226e-09 0.0055646 8.14746e-14)
(-2.23659e-09 0.00557443 1.46622e-13)
(-2.24189e-09 0.00558526 1.49266e-13)
(-2.24713e-09 0.00559608 1.46707e-13)
(-2.25152e-09 0.00560592 8.15827e-14)
(-2.24969e-09 0.00560832 8.14262e-14)
(-2.25409e-09 0.00561815 1.46669e-13)
(-2.2593e-09 0.00562898 1.49198e-13)
(-2.26465e-09 0.0056398 1.46773e-13)
(-2.26891e-09 0.00564964 8.14931e-14)
(-2.26723e-09 0.00565204 8.15256e-14)
(-2.27145e-09 0.00566188 1.46542e-13)
(-2.27689e-09 0.0056727 1.49338e-13)
(-2.28196e-09 0.00568352 1.46593e-13)
(-2.28655e-09 0.00569336 8.16983e-14)
(-2.28447e-09 0.00569576 8.12728e-14)
(-2.28917e-09 0.0057056 1.46836e-13)
(-2.29403e-09 0.00571642 1.48973e-13)
(-2.2998e-09 0.00572724 1.47018e-13)
(-2.30355e-09 0.00573708 8.11777e-14)
(-2.30248e-09 0.00573948 8.18951e-14)
(-2.30597e-09 0.00574932 1.46122e-13)
(-2.31228e-09 0.00576015 1.50554e-13)
(-2.31639e-09 0.00577106 1.50611e-13)
(-2.3227e-09 0.00578189 1.4626e-13)
(-2.3262e-09 0.00579173 8.20225e-14)
(-2.32512e-09 0.00579413 8.11052e-14)
(-2.32887e-09 0.00580397 1.46975e-13)
(-2.33465e-09 0.00581479 1.49016e-13)
(-2.3395e-09 0.00582561 1.46967e-13)
(-2.3442e-09 0.00583545 8.13916e-14)
(-2.34212e-09 0.00583785 8.16206e-14)
(-2.34671e-09 0.00584769 1.46538e-13)
(-2.35179e-09 0.00585851 1.49369e-13)
(-2.35723e-09 0.00586933 1.46662e-13)
(-2.36144e-09 0.00587917 8.16358e-14)
(-2.35977e-09 0.00588157 8.14122e-14)
(-2.36402e-09 0.00589141 1.46703e-13)
(-2.36938e-09 0.00590223 1.49222e-13)
(-2.37458e-09 0.00591305 1.46772e-13)
(-2.37899e-09 0.00592289 8.15375e-14)
(-2.37715e-09 0.00592529 8.14864e-14)
(-2.38155e-09 0.00593513 1.46636e-13)
(-2.38678e-09 0.00594595 1.49265e-13)
(-2.39209e-09 0.00595677 1.46729e-13)
(-2.3964e-09 0.00596661 8.15608e-14)
(-2.39465e-09 0.00596901 8.14663e-14)
(-2.39896e-09 0.00597885 1.4664e-13)
(-2.40428e-09 0.00598967 1.49259e-13)
(-2.40951e-09 0.0060005 1.46715e-13)
(-2.41391e-09 0.00601033 8.15748e-14)
(-2.41206e-09 0.00601273 8.14368e-14)
(-2.41648e-09 0.00602257 1.46671e-13)
(-2.42168e-09 0.00603339 1.49205e-13)
(-2.42703e-09 0.00604422 1.46771e-13)
(-2.43129e-09 0.00605405 8.14945e-14)
(-2.42961e-09 0.00605645 8.15288e-14)
(-2.43382e-09 0.00606629 1.46551e-13)
(-2.43927e-09 0.00607711 1.4934e-13)
(-2.44434e-09 0.00608794 1.46595e-13)
(-2.44893e-09 0.00609777 8.16962e-14)
(-2.44685e-09 0.00610017 8.12792e-14)
(-2.45155e-09 0.00611001 1.46843e-13)
(-2.45641e-09 0.00612083 1.48978e-13)
(-2.46218e-09 0.00613166 1.47019e-13)
(-2.46593e-09 0.00614149 8.11774e-14)
(-2.46486e-09 0.00614389 8.19004e-14)
(-2.46835e-09 0.00615373 1.4613e-13)
(-2.47466e-09 0.00616456 1.50558e-13)
(-2.47877e-09 0.00617547 1.50612e-13)
(-2.48508e-09 0.00618631 1.46258e-13)
(-2.48857e-09 0.00619614 8.20203e-14)
(-2.4875e-09 0.00619854 8.11086e-14)
(-2.49125e-09 0.00620838 1.4698e-13)
(-2.49702e-09 0.0062192 1.49017e-13)
(-2.50188e-09 0.00623003 1.46966e-13)
(-2.50658e-09 0.00623986 8.13884e-14)
(-2.5045e-09 0.00624226 8.16257e-14)
(-2.50909e-09 0.0062521 1.46542e-13)
(-2.51417e-09 0.00626292 1.49372e-13)
(-2.51961e-09 0.00627375 1.4666e-13)
(-2.52382e-09 0.00628358 8.1636e-14)
(-2.52214e-09 0.00628598 8.14137e-14)
(-2.5264e-09 0.00629582 1.46711e-13)
(-2.53175e-09 0.00630664 1.49221e-13)
(-2.53696e-09 0.00631747 1.46776e-13)
(-2.54137e-09 0.0063273 8.15303e-14)
(-2.53953e-09 0.0063297 8.14971e-14)
(-2.54392e-09 0.00633954 1.46634e-13)
(-2.54916e-09 0.00635036 1.49277e-13)
(-2.55446e-09 0.00636119 1.46718e-13)
(-2.5588e-09 0.00637102 8.15727e-14)
(-2.55701e-09 0.00637342 8.14546e-14)
(-2.56136e-09 0.00638326 1.46664e-13)
(-2.56663e-09 0.00639408 1.49239e-13)
(-2.57191e-09 0.00640491 1.46743e-13)
(-2.57626e-09 0.00641474 8.15399e-14)
(-2.57447e-09 0.00641714 8.14816e-14)
(-2.57881e-09 0.00642698 1.46629e-13)
(-2.58411e-09 0.0064378 1.49266e-13)
(-2.58935e-09 0.00644863 1.46702e-13)
(-2.59374e-09 0.00645846 8.15768e-14)
(-2.5919e-09 0.00646086 8.14334e-14)
(-2.59631e-09 0.0064707 1.46677e-13)
(-2.60152e-09 0.00648152 1.492e-13)
(-2.60687e-09 0.00649235 1.46769e-13)
(-2.61113e-09 0.00650218 8.14876e-14)
(-2.60945e-09 0.00650458 8.15333e-14)
(-2.61366e-09 0.00651442 1.4655e-13)
(-2.6191e-09 0.00652524 1.4934e-13)
(-2.62418e-09 0.00653607 1.4659e-13)
(-2.62877e-09 0.0065459 8.16933e-14)
(-2.62669e-09 0.0065483 8.12806e-14)
(-2.63139e-09 0.00655814 1.46845e-13)
(-2.63624e-09 0.00656896 1.48976e-13)
(-2.64202e-09 0.00657979 1.47016e-13)
(-2.64577e-09 0.00658962 8.1173e-14)
(-2.6447e-09 0.00659202 8.19035e-14)
(-2.64819e-09 0.00660186 1.46131e-13)
(-2.6545e-09 0.00661269 1.50558e-13)
(-2.65861e-09 0.00662361 1.50607e-13)
(-2.66492e-09 0.00663444 1.46251e-13)
(-2.66841e-09 0.00664427 8.20144e-14)
(-2.66734e-09 0.00664667 8.111e-14)
(-2.67109e-09 0.00665651 1.46978e-13)
(-2.67686e-09 0.00666733 1.49013e-13)
(-2.68172e-09 0.00667816 1.46959e-13)
(-2.68642e-09 0.00668799 8.13843e-14)
(-2.68434e-09 0.00669039 8.16255e-14)
(-2.68893e-09 0.00670023 1.46542e-13)
(-2.694e-09 0.00671105 1.49367e-13)
(-2.69945e-09 0.00672188 1.46655e-13)
(-2.70366e-09 0.00673171 8.16289e-14)
(-2.70198e-09 0.00673412 8.14175e-14)
(-2.70624e-09 0.00674395 1.46708e-13)
(-2.71159e-09 0.00675477 1.49221e-13)
(-2.7168e-09 0.0067656 1.46766e-13)