/*--------------------------------*- C++ -*----------------------------------*\
| =========                 |                                                 |
| \\      /  F ield         | OpenFOAM: The Open Source CFD Toolbox           |
|  \\    /   O peration     | Version:  2206                                  |
|   \\  /    A nd           | Website:  www.openfoam.com                      |
|    \\/     M anipulation  |                                                 |
\*---------------------------------------------------------------------------*/
FoamFile
{
    version     2.0;
    format      ascii;
    arch        "LSB;label=32;scalar=64";
    class       volScalarField;
    location    "6";
    object      p;
}
// * * * * * * * * * * * * * * * * * * * * * * * * * * * * * * * * * * * * * //

dimensions      [0 2 -2 0 0 0 0];

internalField   nonuniform List<scalar> 
36000
(
4.56149
-58718.1
-112022
-103642
-24999
147326
6.55622e+06
6.57619e+06
6.63131e+06
6.72066e+06
6.82561e+06
6.94371e+06
1.4129e+07
1.41685e+07
1.42348e+07
1.43293e+07
1.44278e+07
1.45036e+07
2.12234e+07
2.12511e+07
2.12965e+07
2.13711e+07
2.14554e+07
2.15311e+07
2.83353e+07
2.83535e+07
2.83851e+07
2.84375e+07
2.84988e+07
2.85632e+07
3.51931e+07
3.52039e+07
3.52234e+07
3.52589e+07
3.5307e+07
3.53617e+07
4.18777e+07
4.1884e+07
4.1897e+07
4.19217e+07
4.19595e+07
4.20045e+07
4.83752e+07
4.83785e+07
4.8388e+07
4.84072e+07
4.84387e+07
4.8477e+07
5.47843e+07
5.47861e+07
5.47937e+07
5.48099e+07
5.48363e+07
5.48691e+07
6.1139e+07
6.11399e+07
6.11467e+07
6.11621e+07
6.11869e+07
6.12174e+07
6.74492e+07
6.74493e+07
6.74557e+07
6.74718e+07
6.74971e+07
6.75276e+07
7.37519e+07
7.37507e+07
7.37562e+07
7.37724e+07
7.37966e+07
7.38267e+07
8.00996e+07
8.00984e+07
8.01047e+07
8.01205e+07
8.01426e+07
8.01702e+07
8.64676e+07
8.64688e+07
8.64796e+07
8.64963e+07
8.6519e+07
8.65415e+07
9.27104e+07
9.27126e+07
9.27253e+07
9.2743e+07
9.27669e+07
9.27857e+07
9.87441e+07
9.87465e+07
9.87579e+07
9.87749e+07
9.87983e+07
9.88161e+07
1.04624e+08
1.04628e+08
1.0464e+08
1.04656e+08
1.04677e+08
1.04694e+08
1.10415e+08
1.1042e+08
1.10432e+08
1.10446e+08
1.10466e+08
1.10481e+08
1.16133e+08
1.16138e+08
1.16148e+08
1.16162e+08
1.1618e+08
1.16194e+08
1.21772e+08
1.21777e+08
1.21787e+08
1.218e+08
1.21818e+08
1.21831e+08
1.27348e+08
1.27352e+08
1.27362e+08
1.27374e+08
1.2739e+08
1.27403e+08
1.3287e+08
1.32874e+08
1.32883e+08
1.32895e+08
1.32911e+08
1.32922e+08
1.38351e+08
1.38355e+08
1.38364e+08
1.38375e+08
1.3839e+08
1.38401e+08
1.43801e+08
1.43804e+08
1.43813e+08
1.43823e+08
1.43838e+08
1.43848e+08
1.49227e+08
1.49231e+08
1.49239e+08
1.49249e+08
1.49263e+08
1.49273e+08
1.54639e+08
1.54642e+08
1.5465e+08
1.54659e+08
1.54673e+08
1.54683e+08
1.60043e+08
1.60046e+08
1.60054e+08
1.60064e+08
1.60077e+08
1.60086e+08
1.6545e+08
1.65453e+08
1.65461e+08
1.65471e+08
1.65484e+08
1.65493e+08
1.70873e+08
1.70876e+08
1.70883e+08
1.70893e+08
1.70906e+08
1.70915e+08
1.76324e+08
1.76326e+08
1.76333e+08
1.76343e+08
1.76356e+08
1.76365e+08
1.81811e+08
1.81814e+08
1.8182e+08
1.81829e+08
1.81841e+08
1.8185e+08
1.87346e+08
1.87348e+08
1.87354e+08
1.87362e+08
1.87374e+08
1.87383e+08
1.92948e+08
1.92949e+08
1.92954e+08
1.92962e+08
1.92974e+08
1.92983e+08
1.98632e+08
1.98633e+08
1.98637e+08
1.98645e+08
1.98656e+08
1.98665e+08
2.04401e+08
2.04401e+08
2.04405e+08
2.04413e+08
2.04423e+08
2.04431e+08
2.10255e+08
2.10254e+08
2.10259e+08
2.10266e+08
2.10276e+08
2.10284e+08
2.16201e+08
2.16201e+08
2.16205e+08
2.16212e+08
2.16222e+08
2.16231e+08
2.22254e+08
2.22254e+08
2.22258e+08
2.22265e+08
2.22275e+08
2.22284e+08
2.28427e+08
2.28426e+08
2.2843e+08
2.28437e+08
2.28448e+08
2.28457e+08
2.34734e+08
2.34733e+08
2.34737e+08
2.34744e+08
2.34754e+08
2.34763e+08
2.41184e+08
2.41183e+08
2.41187e+08
2.41194e+08
2.41204e+08
2.41214e+08
2.47788e+08
2.47787e+08
2.4779e+08
2.47797e+08
2.47808e+08
2.47817e+08
2.54555e+08
2.54554e+08
2.54557e+08
2.54564e+08
2.54575e+08
2.54585e+08
2.615e+08
2.61498e+08
2.61501e+08
2.61508e+08
2.61519e+08
2.6153e+08
2.68636e+08
2.68634e+08
2.68637e+08
2.68645e+08
2.68656e+08
2.68667e+08
2.75982e+08
2.75979e+08
2.75982e+08
2.7599e+08
2.76001e+08
2.76012e+08
2.83549e+08
2.83546e+08
2.83549e+08
2.83556e+08
2.83568e+08
2.83578e+08
2.91336e+08
2.91331e+08
2.9133e+08
2.91335e+08
2.91345e+08
2.91354e+08
2.9933e+08
2.99323e+08
2.99316e+08
2.99314e+08
2.99319e+08
2.99327e+08
3.07501e+08
3.07495e+08
3.07487e+08
3.07481e+08
3.07482e+08
3.07487e+08
3.15749e+08
3.15747e+08
3.15745e+08
3.15741e+08
3.15742e+08
3.15744e+08
3.23942e+08
3.23944e+08
3.23947e+08
3.23947e+08
3.23949e+08
3.2395e+08
3.31987e+08
3.31991e+08
3.31997e+08
3.32e+08
3.32003e+08
3.32003e+08
3.39829e+08
3.39835e+08
3.39841e+08
3.39846e+08
3.3985e+08
3.39851e+08
3.47444e+08
3.4745e+08
3.47458e+08
3.47463e+08
3.47468e+08
3.47469e+08
3.54833e+08
3.5484e+08
3.54847e+08
3.54854e+08
3.54859e+08
3.5486e+08
3.62013e+08
3.62019e+08
3.62027e+08
3.62033e+08
3.62038e+08
3.6204e+08
3.68994e+08
3.69e+08
3.69006e+08
3.69012e+08
3.69017e+08
3.69018e+08
3.75781e+08
3.75785e+08
3.75791e+08
3.75796e+08
3.758e+08
3.75801e+08
3.82378e+08
3.82383e+08
3.82388e+08
3.82392e+08
3.82396e+08
3.82397e+08
3.88798e+08
3.88803e+08
3.88809e+08
3.88813e+08
3.88817e+08
3.88818e+08
3.95049e+08
3.95053e+08
3.95059e+08
3.95064e+08
3.95068e+08
3.9507e+08
4.01135e+08
4.0114e+08
4.01146e+08
4.01151e+08
4.01155e+08
4.01156e+08
4.07065e+08
4.07069e+08
4.07075e+08
4.0708e+08
4.07084e+08
4.07085e+08
4.12845e+08
4.1285e+08
4.12855e+08
4.1286e+08
4.12864e+08
4.12866e+08
4.18486e+08
4.1849e+08
4.18495e+08
4.185e+08
4.18504e+08
4.18506e+08
4.23997e+08
4.24001e+08
4.24005e+08
4.24009e+08
4.24012e+08
4.24012e+08
4.29396e+08
4.29399e+08
4.29403e+08
4.29406e+08
4.29407e+08
4.29406e+08
4.34701e+08
4.34704e+08
4.34708e+08
4.34711e+08
4.34713e+08
4.34711e+08
4.39916e+08
4.39919e+08
4.39924e+08
4.39927e+08
4.3993e+08
4.39929e+08
4.45036e+08
4.45039e+08
4.45044e+08
4.45048e+08
4.45051e+08
4.45051e+08
4.50062e+08
4.50066e+08
4.5007e+08
4.50074e+08
4.50078e+08
4.50078e+08
4.54999e+08
4.55002e+08
4.55007e+08
4.5501e+08
4.55014e+08
4.55015e+08
4.59853e+08
4.59856e+08
4.5986e+08
4.59864e+08
4.59867e+08
4.59868e+08
4.64629e+08
4.64632e+08
4.64636e+08
4.6464e+08
4.64643e+08
4.64643e+08
4.69327e+08
4.69329e+08
4.69333e+08
4.69336e+08
4.69339e+08
4.6934e+08
4.73947e+08
4.73949e+08
4.73952e+08
4.73956e+08
4.73959e+08
4.73959e+08
4.78499e+08
4.78501e+08
4.78504e+08
4.78507e+08
4.7851e+08
4.78511e+08
4.82992e+08
4.82994e+08
4.82997e+08
4.82999e+08
4.83002e+08
4.83003e+08
4.87433e+08
4.87435e+08
4.87438e+08
4.8744e+08
4.87443e+08
4.87444e+08
4.91827e+08
4.91829e+08
4.91832e+08
4.91835e+08
4.91838e+08
4.91839e+08
4.9618e+08
4.96182e+08
4.96185e+08
4.96188e+08
4.96191e+08
4.96192e+08
5.00497e+08
5.00499e+08
5.00502e+08
5.00505e+08
5.00509e+08
5.00511e+08
5.04786e+08
5.04787e+08
5.0479e+08
5.04793e+08
5.04796e+08
5.04798e+08
5.09048e+08
5.09049e+08
5.09051e+08
5.09054e+08
5.09057e+08
5.09058e+08
5.13286e+08
5.13287e+08
5.13289e+08
5.13291e+08
5.13294e+08
5.13296e+08
5.17506e+08
5.17507e+08
5.17509e+08
5.17511e+08
5.17514e+08
5.17516e+08
5.21714e+08
5.21715e+08
5.21717e+08
5.21719e+08
5.21722e+08
5.21724e+08
5.25915e+08
5.25916e+08
5.25917e+08
5.2592e+08
5.25923e+08
5.25924e+08
5.30118e+08
5.30118e+08
5.3012e+08
5.30122e+08
5.30125e+08
5.30125e+08
5.34335e+08
5.34335e+08
5.34336e+08
5.34339e+08
5.34341e+08
5.34342e+08
5.38573e+08
5.38573e+08
5.38574e+08
5.38575e+08
5.38577e+08
5.38579e+08
5.42824e+08
5.42825e+08
5.42826e+08
5.42826e+08
5.42828e+08
5.4283e+08
5.47057e+08
5.47058e+08
5.4706e+08
5.47062e+08
5.47066e+08
5.47069e+08
5.51266e+08
5.51267e+08
5.5127e+08
5.51273e+08
5.51277e+08
5.5128e+08
5.55475e+08
5.55475e+08
5.55477e+08
5.55479e+08
5.55482e+08
5.55484e+08
5.59686e+08
5.59686e+08
5.59688e+08
5.5969e+08
5.59692e+08
5.59694e+08
5.63904e+08
5.63904e+08
5.63906e+08
5.63908e+08
5.6391e+08
5.63912e+08
5.68132e+08
5.68132e+08
5.68134e+08
5.68135e+08
5.68138e+08
5.6814e+08
5.72369e+08
5.72369e+08
5.72371e+08
5.72373e+08
5.72375e+08
5.72377e+08
5.76616e+08
5.76617e+08
5.76618e+08
5.7662e+08
5.76622e+08
5.76624e+08
5.80874e+08
5.80874e+08
5.80876e+08
5.80877e+08
5.8088e+08
5.80882e+08
5.85142e+08
5.85143e+08
5.85144e+08
5.85146e+08
5.85148e+08
5.85151e+08
5.89422e+08
5.89423e+08
5.89424e+08
5.89426e+08
5.89429e+08
5.89431e+08
5.93716e+08
5.93716e+08
5.93718e+08
5.9372e+08
5.93723e+08
5.93725e+08
5.98026e+08
5.98027e+08
5.98028e+08
5.98031e+08
5.98034e+08
5.98037e+08
6.0236e+08
6.0236e+08
6.02362e+08
6.02365e+08
6.0237e+08
6.02373e+08
6.06729e+08
6.06729e+08
6.06732e+08
6.06736e+08
6.06742e+08
6.06746e+08
6.11149e+08
6.11149e+08
6.11152e+08
6.11158e+08
6.11166e+08
6.11171e+08
6.15645e+08
6.15645e+08
6.15647e+08
6.15653e+08
6.15661e+08
6.15666e+08
6.20243e+08
6.20241e+08
6.20242e+08
6.20246e+08
6.20253e+08
6.20258e+08
6.24954e+08
6.24951e+08
6.24952e+08
6.24954e+08
6.2496e+08
6.24966e+08
6.29788e+08
6.29785e+08
6.29785e+08
6.29787e+08
6.29792e+08
6.29797e+08
6.34756e+08
6.34753e+08
6.34753e+08
6.34754e+08
6.34759e+08
6.34764e+08
6.39869e+08
6.39866e+08
6.39866e+08
6.39867e+08
6.39871e+08
6.39877e+08
6.4514e+08
6.45136e+08
6.45136e+08
6.45137e+08
6.45142e+08
6.45148e+08
6.50575e+08
6.50572e+08
6.50571e+08
6.50572e+08
6.50576e+08
6.50581e+08
6.56197e+08
6.56193e+08
6.56191e+08
6.5619e+08
6.56192e+08
6.56194e+08
6.62039e+08
6.62035e+08
6.62033e+08
6.62032e+08
6.62033e+08
6.62034e+08
6.68112e+08
6.68108e+08
6.68107e+08
6.68107e+08
6.6811e+08
6.68113e+08
6.74408e+08
6.74404e+08
6.74404e+08
6.74404e+08
6.74409e+08
6.74412e+08
6.80926e+08
6.80921e+08
6.80921e+08
6.80922e+08
6.80927e+08
6.8093e+08
6.87669e+08
6.87663e+08
6.87663e+08
6.87663e+08
6.87668e+08
6.87672e+08
6.94641e+08
6.94634e+08
6.94631e+08
6.94631e+08
6.94635e+08
6.94638e+08
7.01829e+08
7.01821e+08
7.01817e+08
7.01816e+08
7.01819e+08
7.01822e+08
7.09217e+08
7.09212e+08
7.09207e+08
7.09204e+08
7.09206e+08
7.09207e+08
7.16789e+08
7.16785e+08
7.1678e+08
7.16775e+08
7.16773e+08
7.16773e+08
7.24447e+08
7.24445e+08
7.24441e+08
7.24437e+08
7.24432e+08
7.2443e+08
7.32115e+08
7.32114e+08
7.32111e+08
7.32108e+08
7.32103e+08
7.32101e+08
7.3979e+08
7.39789e+08
7.39786e+08
7.39783e+08
7.39778e+08
7.39776e+08
7.47468e+08
7.47467e+08
7.47463e+08
7.4746e+08
7.47456e+08
7.47454e+08
7.55154e+08
7.55153e+08
7.5515e+08
7.55147e+08
7.55143e+08
7.55141e+08
7.62856e+08
7.62855e+08
7.62851e+08
7.62848e+08
7.62844e+08
7.62842e+08
7.70579e+08
7.70577e+08
7.70574e+08
7.7057e+08
7.70567e+08
7.70565e+08
7.78331e+08
7.78329e+08
7.78326e+08
7.78322e+08
7.78319e+08
7.78318e+08
7.86121e+08
7.8612e+08
7.86117e+08
7.86114e+08
7.86111e+08
7.8611e+08
7.93958e+08
7.93956e+08
7.93953e+08
7.93951e+08
7.93949e+08
7.93948e+08
8.01846e+08
8.01845e+08
8.01842e+08
8.01839e+08
8.01837e+08
8.01837e+08
8.09791e+08
8.09789e+08
8.09786e+08
8.09784e+08
8.09782e+08
8.09781e+08
8.17795e+08
8.17794e+08
8.17791e+08
8.17788e+08
8.17786e+08
8.17786e+08
8.25865e+08
8.25863e+08
8.2586e+08
8.25857e+08
8.25856e+08
8.25855e+08
8.34002e+08
8.34e+08
8.33997e+08
8.33994e+08
8.33992e+08
8.33992e+08
8.42208e+08
8.42207e+08
8.42204e+08
8.42201e+08
8.422e+08
8.42199e+08
8.50486e+08
8.50485e+08
8.50481e+08
8.50479e+08
8.50478e+08
8.50477e+08
8.58833e+08
8.58832e+08
8.58828e+08
8.58826e+08
8.58824e+08
8.58824e+08
8.67244e+08
8.67243e+08
8.6724e+08
8.67237e+08
8.67235e+08
8.67234e+08
8.75719e+08
8.75717e+08
8.75714e+08
8.75711e+08
8.75708e+08
8.75707e+08
8.84267e+08
8.84265e+08
8.84262e+08
8.84258e+08
8.84255e+08
8.84254e+08
8.92917e+08
8.92915e+08
8.92911e+08
8.92907e+08
8.92905e+08
8.92905e+08
9.01701e+08
9.01699e+08
9.01694e+08
9.01691e+08
9.0169e+08
9.01691e+08
9.10632e+08
9.1063e+08
9.10625e+08
9.10623e+08
9.10623e+08
9.10625e+08
9.19703e+08
9.19701e+08
9.19696e+08
9.19694e+08
9.19694e+08
9.19695e+08
9.28893e+08
9.28891e+08
9.28887e+08
9.28884e+08
9.28883e+08
9.28883e+08
9.38186e+08
9.38185e+08
9.3818e+08
9.38177e+08
9.38176e+08
9.38175e+08
9.47578e+08
9.47577e+08
9.47573e+08
9.47569e+08
9.47567e+08
9.47567e+08
9.57073e+08
9.57071e+08
9.57067e+08
9.57063e+08
9.57062e+08
9.57061e+08
9.66675e+08
9.66674e+08
9.66669e+08
9.66666e+08
9.66664e+08
9.66664e+08
9.76397e+08
9.76395e+08
9.7639e+08
9.76386e+08
9.76384e+08
9.76384e+08
9.86246e+08
9.86244e+08
9.86239e+08
9.86235e+08
9.86233e+08
9.86232e+08
9.96225e+08
9.96223e+08
9.96218e+08
9.96212e+08
9.96209e+08
9.96208e+08
1.00634e+09
1.00633e+09
1.00633e+09
1.00632e+09
1.00632e+09
1.00632e+09
1.0166e+09
1.0166e+09
1.01659e+09
1.01659e+09
1.01658e+09
1.01658e+09
1.02705e+09
1.02705e+09
1.02704e+09
1.02704e+09
1.02704e+09
1.02704e+09
1.03769e+09
1.03769e+09
1.03769e+09
1.03769e+09
1.03769e+09
1.03769e+09
1.04843e+09
1.04843e+09
1.04843e+09
1.04844e+09
1.04844e+09
1.04845e+09
1.05915e+09
1.05915e+09
1.05915e+09
1.05916e+09
1.05917e+09
1.05917e+09
1.06978e+09
1.06979e+09
1.06979e+09
1.0698e+09
1.06981e+09
1.06981e+09
1.08026e+09
1.08026e+09
1.08027e+09
1.08028e+09
1.08029e+09
1.08029e+09
1.09049e+09
1.0905e+09
1.09051e+09
1.09052e+09
1.09052e+09
1.09052e+09
1.10048e+09
1.10049e+09
1.1005e+09
1.10051e+09
1.10051e+09
1.10051e+09
1.11025e+09
1.11025e+09
1.11026e+09
1.11027e+09
1.11028e+09
1.11028e+09
1.11981e+09
1.11981e+09
1.11982e+09
1.11983e+09
1.11983e+09
1.11983e+09
1.12918e+09
1.12918e+09
1.12919e+09
1.1292e+09
1.1292e+09
1.12921e+09
1.13839e+09
1.13839e+09
1.1384e+09
1.1384e+09
1.13841e+09
1.13841e+09
1.14744e+09
1.14744e+09
1.14745e+09
1.14745e+09
1.14746e+09
1.14746e+09
1.15635e+09
1.15635e+09
1.15636e+09
1.15637e+09
1.15637e+09
1.15637e+09
1.16514e+09
1.16514e+09
1.16515e+09
1.16516e+09
1.16516e+09
1.16516e+09
1.17382e+09
1.17382e+09
1.17382e+09
1.17383e+09
1.17383e+09
1.17383e+09
1.18239e+09
1.18239e+09
1.18239e+09
1.1824e+09
1.1824e+09
1.18241e+09
1.19086e+09
1.19087e+09
1.19087e+09
1.19088e+09
1.19088e+09
1.19088e+09
1.19926e+09
1.19926e+09
1.19926e+09
1.19927e+09
1.19927e+09
1.19927e+09
1.20757e+09
1.20758e+09
1.20758e+09
1.20759e+09
1.20759e+09
1.20759e+09
1.21582e+09
1.21582e+09
1.21582e+09
1.21583e+09
1.21583e+09
1.21583e+09
1.224e+09
1.224e+09
1.22401e+09
1.22401e+09
1.22401e+09
1.22401e+09
1.23212e+09
1.23212e+09
1.23213e+09
1.23213e+09
1.23214e+09
1.23214e+09
1.24019e+09
1.24019e+09
1.2402e+09
1.2402e+09
1.2402e+09
1.2402e+09
1.24821e+09
1.24821e+09
1.24821e+09
1.24821e+09
1.24822e+09
1.24822e+09
1.25615e+09
1.25615e+09
1.25615e+09
1.25616e+09
1.25616e+09
1.25615e+09
1.26402e+09
1.26402e+09
1.26402e+09
1.26402e+09
1.26402e+09
1.26402e+09
1.27182e+09
1.27182e+09
1.27182e+09
1.27183e+09
1.27182e+09
1.27182e+09
1.27958e+09
1.27958e+09
1.27958e+09
1.27958e+09
1.27958e+09
1.27958e+09
1.28728e+09
1.28728e+09
1.28728e+09
1.28728e+09
1.28728e+09
1.28727e+09
1.29491e+09
1.29491e+09
1.29491e+09
1.29491e+09
1.2949e+09
1.2949e+09
1.30247e+09
1.30247e+09
1.30247e+09
1.30246e+09
1.30246e+09
1.30246e+09
1.30996e+09
1.30996e+09
1.30996e+09
1.30996e+09
1.30995e+09
1.30995e+09
1.31738e+09
1.31738e+09
1.31738e+09
1.31738e+09
1.31738e+09
1.31738e+09
1.32474e+09
1.32474e+09
1.32474e+09
1.32474e+09
1.32474e+09
1.32474e+09
1.33204e+09
1.33204e+09
1.33204e+09
1.33203e+09
1.33203e+09
1.33203e+09
1.33927e+09
1.33927e+09
1.33927e+09
1.33927e+09
1.33927e+09
1.33927e+09
1.34645e+09
1.34645e+09
1.34645e+09
1.34645e+09
1.34645e+09
1.34645e+09
1.35357e+09
1.35357e+09
1.35357e+09
1.35357e+09
1.35357e+09
1.35357e+09
1.36064e+09
1.36064e+09
1.36064e+09
1.36064e+09
1.36064e+09
1.36064e+09
1.36766e+09
1.36766e+09
1.36766e+09
1.36766e+09
1.36765e+09
1.36765e+09
1.37462e+09
1.37462e+09
1.37462e+09
1.37462e+09
1.37462e+09
1.37462e+09
1.38154e+09
1.38154e+09
1.38154e+09
1.38154e+09
1.38154e+09
1.38154e+09
1.38841e+09
1.38841e+09
1.38841e+09
1.38841e+09
1.38841e+09
1.3884e+09
1.39523e+09
1.39523e+09
1.39523e+09
1.39523e+09
1.39523e+09
1.39523e+09
1.40201e+09
1.40201e+09
1.40201e+09
1.40201e+09
1.40201e+09
1.40201e+09
1.40875e+09
1.40875e+09
1.40875e+09
1.40874e+09
1.40874e+09
1.40874e+09
1.41544e+09
1.41544e+09
1.41544e+09
1.41544e+09
1.41544e+09
1.41544e+09
1.4221e+09
1.4221e+09
1.42209e+09
1.42209e+09
1.42209e+09
1.42209e+09
1.42871e+09
1.42871e+09
1.42871e+09
1.42871e+09
1.42871e+09
1.42871e+09
1.43529e+09
1.43529e+09
1.43529e+09
1.43529e+09
1.43529e+09
1.43529e+09
1.44183e+09
1.44183e+09
1.44183e+09
1.44183e+09
1.44183e+09
1.44183e+09
1.44833e+09
1.44833e+09
1.44833e+09
1.44833e+09
1.44833e+09
1.44833e+09
1.4548e+09
1.4548e+09
1.4548e+09
1.4548e+09
1.4548e+09
1.4548e+09
1.46124e+09
1.46124e+09
1.46124e+09
1.46124e+09
1.46124e+09
1.46124e+09
1.46764e+09
1.46764e+09
1.46764e+09
1.46764e+09
1.46764e+09
1.46764e+09
1.47402e+09
1.47402e+09
1.47401e+09
1.47401e+09
1.47401e+09
1.47401e+09
1.48036e+09
1.48036e+09
1.48036e+09
1.48035e+09
1.48035e+09
1.48035e+09
1.48667e+09
1.48667e+09
1.48667e+09
1.48667e+09
1.48667e+09
1.48666e+09
1.49295e+09
1.49295e+09
1.49295e+09
1.49295e+09
1.49295e+09
1.49295e+09
1.4992e+09
1.4992e+09
1.4992e+09
1.4992e+09
1.4992e+09
1.4992e+09
1.50543e+09
1.50543e+09
1.50543e+09
1.50542e+09
1.50542e+09
1.50542e+09
1.51162e+09
1.51162e+09
1.51162e+09
1.51162e+09
1.51162e+09
1.51162e+09
1.5178e+09
1.5178e+09
1.5178e+09
1.5178e+09
1.5178e+09
1.5178e+09
1.52395e+09
1.52395e+09
1.52394e+09
1.52394e+09
1.52394e+09
1.52394e+09
1.53007e+09
1.53007e+09
1.53007e+09
1.53007e+09
1.53007e+09
1.53007e+09
1.53617e+09
1.53617e+09
1.53617e+09
1.53617e+09
1.53617e+09
1.53617e+09
1.54225e+09
1.54225e+09
1.54225e+09
1.54225e+09
1.54225e+09
1.54225e+09
1.54829e+09
1.54829e+09
1.54829e+09
1.54829e+09
1.54829e+09
1.54829e+09
1.55431e+09
1.55431e+09
1.55431e+09
1.55431e+09
1.55431e+09
1.55431e+09
1.56029e+09
1.56029e+09
1.56029e+09
1.56029e+09
1.56029e+09
1.56029e+09
1.56626e+09
1.56626e+09
1.56626e+09
1.56626e+09
1.56626e+09
1.56626e+09
1.57218e+09
1.57218e+09
1.57218e+09
1.57218e+09
1.57218e+09
1.57218e+09
1.57806e+09
1.57806e+09
1.57807e+09
1.57807e+09
1.57807e+09
1.57807e+09
1.5839e+09
1.5839e+09
1.5839e+09
1.5839e+09
1.5839e+09
1.5839e+09
1.58968e+09
1.58968e+09
1.58968e+09
1.58968e+09
1.58968e+09
1.58968e+09
1.59541e+09
1.59541e+09
1.59541e+09
1.59541e+09
1.59541e+09
1.59541e+09
1.60109e+09
1.60109e+09
1.6011e+09
1.6011e+09
1.6011e+09
1.6011e+09
1.60672e+09
1.60673e+09
1.60673e+09
1.60673e+09
1.60673e+09
1.60673e+09
1.6123e+09
1.6123e+09
1.61231e+09
1.61231e+09
1.61231e+09
1.61231e+09
1.61783e+09
1.61783e+09
1.61783e+09
1.61783e+09
1.61784e+09
1.61784e+09
1.62331e+09
1.62331e+09
1.62331e+09
1.62331e+09
1.62331e+09
1.62331e+09
1.62874e+09
1.62874e+09
1.62874e+09
1.62874e+09
1.62874e+09
1.62874e+09
1.63412e+09
1.63412e+09
1.63412e+09
1.63412e+09
1.63412e+09
1.63412e+09
1.63946e+09
1.63946e+09
1.63946e+09
1.63946e+09
1.63946e+09
1.63946e+09
1.64474e+09
1.64474e+09
1.64474e+09
1.64474e+09
1.64474e+09
1.64474e+09
1.64998e+09
1.64998e+09
1.64998e+09
1.64998e+09
1.64998e+09
1.64998e+09
1.65517e+09
1.65517e+09
1.65518e+09
1.65518e+09
1.65518e+09
1.65518e+09
1.66032e+09
1.66032e+09
1.66032e+09
1.66032e+09
1.66032e+09
1.66032e+09
1.66543e+09
1.66543e+09
1.66543e+09
1.66543e+09
1.66543e+09
1.66543e+09
1.67048e+09
1.67049e+09
1.67049e+09
1.67049e+09
1.67049e+09
1.67049e+09
1.6755e+09
1.6755e+09
1.6755e+09
1.6755e+09
1.6755e+09
1.6755e+09
1.68047e+09
1.68047e+09
1.68047e+09
1.68047e+09
1.68047e+09
1.68047e+09
1.6854e+09
1.6854e+09
1.6854e+09
1.6854e+09
1.6854e+09
1.6854e+09
1.69029e+09
1.69029e+09
1.69029e+09
1.69029e+09
1.69029e+09
1.69029e+09
1.69513e+09
1.69513e+09
1.69513e+09
1.69513e+09
1.69514e+09
1.69514e+09
1.69994e+09
1.69994e+09
1.69994e+09
1.69994e+09
1.69994e+09
1.69994e+09
1.7047e+09
1.7047e+09
1.7047e+09
1.7047e+09
1.7047e+09
1.7047e+09
1.70942e+09
1.70942e+09
1.70943e+09
1.70943e+09
1.70943e+09
1.70943e+09
1.71411e+09
1.71411e+09
1.71411e+09
1.71411e+09
1.71411e+09
1.71411e+09
1.71875e+09
1.71875e+09
1.71875e+09
1.71875e+09
1.71876e+09
1.71876e+09
1.72336e+09
1.72336e+09
1.72336e+09
1.72336e+09
1.72336e+09
1.72336e+09
1.72793e+09
1.72793e+09
1.72793e+09
1.72793e+09
1.72793e+09
1.72793e+09
1.73246e+09
1.73246e+09
1.73246e+09
1.73246e+09
1.73246e+09
1.73246e+09
1.73695e+09
1.73695e+09
1.73695e+09
1.73695e+09
1.73695e+09
1.73695e+09
1.7414e+09
1.7414e+09
1.74141e+09
1.74141e+09
1.74141e+09
1.74141e+09
1.74582e+09
1.74582e+09
1.74582e+09
1.74583e+09
1.74583e+09
1.74583e+09
1.75021e+09
1.75021e+09
1.75021e+09
1.75021e+09
1.75021e+09
1.75021e+09
1.75455e+09
1.75455e+09
1.75455e+09
1.75456e+09
1.75456e+09
1.75456e+09
1.75887e+09
1.75887e+09
1.75887e+09
1.75887e+09
1.75887e+09
1.75887e+09
1.76314e+09
1.76314e+09
1.76314e+09
1.76314e+09
1.76314e+09
1.76314e+09
1.76739e+09
1.76739e+09
1.76739e+09
1.76739e+09
1.76739e+09
1.76739e+09
1.77159e+09
1.77159e+09
1.7716e+09
1.7716e+09
1.7716e+09
1.7716e+09
1.77577e+09
1.77577e+09
1.77577e+09
1.77577e+09
1.77577e+09
1.77577e+09
1.77991e+09
1.77991e+09
1.77991e+09
1.77991e+09
1.77991e+09
1.77991e+09
1.78402e+09
1.78402e+09
1.78402e+09
1.78402e+09
1.78402e+09
1.78402e+09
1.7881e+09
1.7881e+09
1.7881e+09
1.7881e+09
1.7881e+09
1.7881e+09
1.79214e+09
1.79214e+09
1.79214e+09
1.79214e+09
1.79214e+09
1.79214e+09
1.79615e+09
1.79615e+09
1.79615e+09
1.79615e+09
1.79615e+09
1.79615e+09
1.80013e+09
1.80013e+09
1.80013e+09
1.80014e+09
1.80014e+09
1.80014e+09
1.80408e+09
1.80408e+09
1.80408e+09
1.80409e+09
1.80409e+09
1.80409e+09
1.808e+09
1.808e+09
1.808e+09
1.808e+09
1.808e+09
1.808e+09
1.81189e+09
1.81189e+09
1.81189e+09
1.81189e+09
1.81189e+09
1.81189e+09
1.81575e+09
1.81575e+09
1.81575e+09
1.81575e+09
1.81575e+09
1.81575e+09
1.81958e+09
1.81958e+09
1.81958e+09
1.81958e+09
1.81958e+09
1.81958e+09
1.82338e+09
1.82338e+09
1.82338e+09
1.82338e+09
1.82338e+09
1.82338e+09
1.82715e+09
1.82715e+09
1.82715e+09
1.82715e+09
1.82715e+09
1.82715e+09
1.83089e+09
1.83089e+09
1.83089e+09
1.83089e+09
1.83089e+09
1.83089e+09
1.8346e+09
1.8346e+09
1.8346e+09
1.8346e+09
1.8346e+09
1.8346e+09
1.83829e+09
1.83829e+09
1.83829e+09
1.83829e+09
1.83829e+09
1.83829e+09
1.84194e+09
1.84194e+09
1.84194e+09
1.84194e+09
1.84194e+09
1.84194e+09
1.84557e+09
1.84557e+09
1.84557e+09
1.84557e+09
1.84557e+09
1.84557e+09
1.84917e+09
1.84917e+09
1.84917e+09
1.84917e+09
1.84917e+09
1.84917e+09
1.85275e+09
1.85275e+09
1.85275e+09
1.85275e+09
1.85275e+09
1.85275e+09
1.85629e+09
1.85629e+09
1.85629e+09
1.85629e+09
1.85629e+09
1.85629e+09
1.85981e+09
1.85981e+09
1.85981e+09
1.85981e+09
1.85981e+09
1.85981e+09
1.86331e+09
1.86331e+09
1.86331e+09
1.86331e+09
1.86331e+09
1.86331e+09
1.86678e+09
1.86678e+09
1.86678e+09
1.86678e+09
1.86678e+09
1.86678e+09
1.87022e+09
1.87022e+09
1.87022e+09
1.87022e+09
1.87022e+09
1.87022e+09
1.87363e+09
1.87363e+09
1.87363e+09
1.87364e+09
1.87364e+09
1.87364e+09
1.87703e+09
1.87703e+09
1.87703e+09
1.87703e+09
1.87703e+09
1.87703e+09
1.88039e+09
1.88039e+09
1.88039e+09
1.88039e+09
1.88039e+09
1.88039e+09
1.88373e+09
1.88373e+09
1.88373e+09
1.88373e+09
1.88373e+09
1.88373e+09
1.88705e+09
1.88705e+09
1.88705e+09
1.88705e+09
1.88705e+09
1.88705e+09
1.89034e+09
1.89034e+09
1.89034e+09
1.89034e+09
1.89035e+09
1.89035e+09
1.89361e+09
1.89361e+09
1.89361e+09
1.89361e+09
1.89361e+09
1.89361e+09
1.89686e+09
1.89686e+09
1.89686e+09
1.89686e+09
1.89686e+09
1.89686e+09
1.90008e+09
1.90008e+09
1.90008e+09
1.90008e+09
1.90008e+09
1.90008e+09
1.90328e+09
1.90328e+09
1.90328e+09
1.90328e+09
1.90328e+09
1.90328e+09
1.90645e+09
1.90645e+09
1.90645e+09
1.90645e+09
1.90645e+09
1.90645e+09
1.9096e+09
1.9096e+09
1.9096e+09
1.9096e+09
1.9096e+09
1.9096e+09
1.91273e+09
1.91273e+09
1.91273e+09
1.91273e+09
1.91273e+09
1.91273e+09
1.91584e+09
1.91584e+09
1.91584e+09
1.91584e+09
1.91584e+09
1.91584e+09
1.91892e+09
1.91892e+09
1.91892e+09
1.91892e+09
1.91892e+09
1.91892e+09
1.92198e+09
1.92198e+09
1.92198e+09
1.92198e+09
1.92198e+09
1.92198e+09
1.92502e+09
1.92502e+09
1.92502e+09
1.92502e+09
1.92502e+09
1.92502e+09
1.92804e+09
1.92804e+09
1.92804e+09
1.92804e+09
1.92804e+09
1.92804e+09
1.93104e+09
1.93104e+09
1.93104e+09
1.93104e+09
1.93104e+09
1.93104e+09
1.93401e+09
1.93401e+09
1.93401e+09
1.93402e+09
1.93402e+09
1.93402e+09
1.93697e+09
1.93697e+09
1.93697e+09
1.93697e+09
1.93697e+09
1.93697e+09
1.9399e+09
1.9399e+09
1.9399e+09
1.9399e+09
1.9399e+09
1.9399e+09
1.94281e+09
1.94281e+09
1.94281e+09
1.94282e+09
1.94282e+09
1.94282e+09
1.94571e+09
1.94571e+09
1.94571e+09
1.94571e+09
1.94571e+09
1.94571e+09
1.94858e+09
1.94858e+09
1.94858e+09
1.94858e+09
1.94858e+09
1.94858e+09
1.95143e+09
1.95143e+09
1.95143e+09
1.95143e+09
1.95143e+09
1.95143e+09
1.95426e+09
1.95426e+09
1.95426e+09
1.95426e+09
1.95426e+09
1.95426e+09
1.95707e+09
1.95707e+09
1.95707e+09
1.95707e+09
1.95707e+09
1.95707e+09
1.95986e+09
1.95986e+09
1.95986e+09
1.95986e+09
1.95986e+09
1.95986e+09
1.96263e+09
1.96264e+09
1.96264e+09
1.96264e+09
1.96264e+09
1.96264e+09
1.96539e+09
1.96539e+09
1.96539e+09
1.96539e+09
1.96539e+09
1.96539e+09
1.96812e+09
1.96812e+09
1.96812e+09
1.96812e+09
1.96812e+09
1.96812e+09
1.97083e+09
1.97083e+09
1.97084e+09
1.97084e+09
1.97084e+09
1.97084e+09
1.97353e+09
1.97353e+09
1.97353e+09
1.97353e+09
1.97353e+09
1.97353e+09
1.97621e+09
1.97621e+09
1.97621e+09
1.97621e+09
1.97621e+09
1.97621e+09
1.97886e+09
1.97886e+09
1.97886e+09
1.97886e+09
1.97886e+09
1.97886e+09
1.9815e+09
1.9815e+09
1.9815e+09
1.9815e+09
1.9815e+09
1.9815e+09
1.98412e+09
1.98412e+09
1.98413e+09
1.98413e+09
1.98413e+09
1.98413e+09
1.98673e+09
1.98673e+09
1.98673e+09
1.98673e+09
1.98673e+09
1.98673e+09
1.98931e+09
1.98931e+09
1.98931e+09
1.98931e+09
1.98931e+09
1.98931e+09
1.99188e+09
1.99188e+09
1.99188e+09
1.99188e+09
1.99188e+09
1.99188e+09
1.99443e+09
1.99443e+09
1.99443e+09
1.99443e+09
1.99443e+09
1.99443e+09
1.99696e+09
1.99696e+09
1.99696e+09
1.99696e+09
1.99696e+09
1.99696e+09
1.99948e+09
1.99948e+09
1.99948e+09
1.99948e+09
1.99948e+09
1.99948e+09
2.00197e+09
2.00197e+09
2.00197e+09
2.00197e+09
2.00197e+09
2.00197e+09
2.00445e+09
2.00445e+09
2.00445e+09
2.00445e+09
2.00445e+09
2.00445e+09
2.00692e+09
2.00692e+09
2.00692e+09
2.00692e+09
2.00692e+09
2.00692e+09
2.00936e+09
2.00936e+09
2.00936e+09
2.00936e+09
2.00936e+09
2.00936e+09
2.01179e+09
2.01179e+09
2.01179e+09
2.01179e+09
2.01179e+09
2.01179e+09
2.0142e+09
2.0142e+09
2.0142e+09
2.0142e+09
2.0142e+09
2.0142e+09
2.0166e+09
2.0166e+09
2.0166e+09
2.0166e+09
2.0166e+09
2.0166e+09
2.01898e+09
2.01898e+09
2.01898e+09
2.01898e+09
2.01898e+09
2.01898e+09
2.02134e+09
2.02134e+09
2.02134e+09
2.02134e+09
2.02134e+09
2.02134e+09
2.02369e+09
2.02369e+09
2.02369e+09
2.02369e+09
2.02369e+09
2.02369e+09
2.02602e+09
2.02602e+09
2.02602e+09
2.02602e+09
2.02602e+09
2.02602e+09
2.02833e+09
2.02833e+09
2.02833e+09
2.02833e+09
2.02833e+09
2.02833e+09
2.03063e+09
2.03063e+09
2.03063e+09
2.03063e+09
2.03063e+09
2.03063e+09
2.03291e+09
2.03291e+09
2.03291e+09
2.03291e+09
2.03291e+09
2.03291e+09
2.03517e+09
2.03517e+09
2.03517e+09
2.03517e+09
2.03517e+09
2.03517e+09
2.03742e+09
2.03742e+09
2.03742e+09
2.03742e+09
2.03742e+09
2.03742e+09
2.03966e+09
2.03966e+09
2.03966e+09
2.03966e+09
2.03966e+09
2.03966e+09
2.04188e+09
2.04189e+09
2.04189e+09
2.04189e+09
2.04189e+09
2.04189e+09
2.04409e+09
2.04409e+09
2.0441e+09
2.0441e+09
2.0441e+09
2.0441e+09
2.04629e+09
2.04629e+09
2.04629e+09
2.04629e+09
2.04629e+09
2.04629e+09
2.04847e+09
2.04847e+09
2.04847e+09
2.04847e+09
2.04847e+09
2.04847e+09
2.05063e+09
2.05063e+09
2.05063e+09
2.05063e+09
2.05063e+09
2.05063e+09
2.05278e+09
2.05278e+09
2.05277e+09
2.05277e+09
2.05277e+09
2.05277e+09
2.05491e+09
2.05491e+09
2.05491e+09
2.05491e+09
2.05491e+09
2.05491e+09
2.05702e+09
2.05702e+09
2.05703e+09
2.05703e+09
2.05703e+09
2.05703e+09
2.05913e+09
2.05913e+09
2.05913e+09
2.05913e+09
2.05913e+09
2.05913e+09
2.06122e+09
2.06122e+09
2.06122e+09
2.06122e+09
2.06122e+09
2.06122e+09
2.0633e+09
2.0633e+09
2.0633e+09
2.0633e+09
2.0633e+09
2.0633e+09
2.06536e+09
2.06536e+09
2.06536e+09
2.06536e+09
2.06536e+09
2.06536e+09
2.0674e+09
2.0674e+09
2.0674e+09
2.0674e+09
2.0674e+09
2.0674e+09
2.06943e+09
2.06943e+09
2.06943e+09
2.06943e+09
2.06943e+09
2.06943e+09
2.07145e+09
2.07145e+09
2.07145e+09
2.07145e+09
2.07145e+09
2.07144e+09
2.07345e+09
2.07345e+09
2.07345e+09
2.07345e+09
2.07345e+09
2.07345e+09
2.07544e+09
2.07544e+09
2.07544e+09
2.07544e+09
2.07544e+09
2.07544e+09
2.07743e+09
2.07743e+09
2.07743e+09
2.07743e+09
2.07743e+09
2.07743e+09
2.07942e+09
2.07942e+09
2.07942e+09
2.07942e+09
2.07942e+09
2.07942e+09
2.08141e+09
2.08141e+09
2.08141e+09
2.08141e+09
2.08141e+09
2.08141e+09
2.08339e+09
2.08339e+09
2.08339e+09
2.08339e+09
2.08339e+09
2.08339e+09
2.08537e+09
2.08537e+09
2.08537e+09
2.08537e+09
2.08537e+09
2.08537e+09
2.08736e+09
2.08736e+09
2.08736e+09
2.08736e+09
2.08736e+09
2.08736e+09
2.08934e+09
2.08934e+09
2.08934e+09
2.08934e+09
2.08934e+09
2.08934e+09
2.09132e+09
2.09132e+09
2.09132e+09
2.09132e+09
2.09132e+09
2.09132e+09
2.0933e+09
2.0933e+09
2.0933e+09
2.0933e+09
2.0933e+09
2.0933e+09
2.09527e+09
2.09527e+09
2.09527e+09
2.09527e+09
2.09527e+09
2.09527e+09
2.09725e+09
2.09725e+09
2.09725e+09
2.09725e+09
2.09725e+09
2.09725e+09
2.09923e+09
2.09923e+09
2.09923e+09
2.09923e+09
2.09923e+09
2.09923e+09
2.1012e+09
2.1012e+09
2.1012e+09
2.1012e+09
2.1012e+09
2.1012e+09
2.10318e+09
2.10318e+09
2.10318e+09
2.10318e+09
2.10318e+09
2.10318e+09
2.10515e+09
2.10515e+09
2.10515e+09
2.10515e+09
2.10515e+09
2.10515e+09
2.10712e+09
2.10712e+09
2.10712e+09
2.10712e+09
2.10712e+09
2.10712e+09
2.10909e+09
2.10909e+09
2.10909e+09
2.10909e+09
2.10909e+09
2.10909e+09
2.11107e+09
2.11107e+09
2.11107e+09
2.11107e+09
2.11106e+09
2.11106e+09
2.11304e+09
2.11304e+09
2.11304e+09
2.11304e+09
2.11304e+09
2.11304e+09
2.11501e+09
2.115e+09
2.115e+09
2.115e+09
2.115e+09
2.115e+09
2.11697e+09
2.11697e+09
2.11697e+09
2.11697e+09
2.11697e+09
2.11697e+09
2.11894e+09
2.11894e+09
2.11894e+09
2.11894e+09
2.11894e+09
2.11894e+09
2.12091e+09
2.12091e+09
2.12091e+09
2.12091e+09
2.12091e+09
2.12091e+09
2.12288e+09
2.12288e+09
2.12288e+09
2.12288e+09
2.12288e+09
2.12288e+09
2.12484e+09
2.12484e+09
2.12484e+09
2.12484e+09
2.12484e+09
2.12484e+09
2.12681e+09
2.12681e+09
2.12681e+09
2.12681e+09
2.12681e+09
2.12681e+09
2.12877e+09
2.12877e+09
2.12877e+09
2.12877e+09
2.12877e+09
2.12877e+09
2.13073e+09
2.13073e+09
2.13073e+09
2.13073e+09
2.13073e+09
2.13073e+09
2.1327e+09
2.1327e+09
2.1327e+09
2.1327e+09
2.1327e+09
2.1327e+09
2.13466e+09
2.13466e+09