/*--------------------------------*- C++ -*----------------------------------*\
| =========                 |                                                 |
| \\      /  F ield         | OpenFOAM: The Open Source CFD Toolbox           |
|  \\    /   O peration     | Version:  2206                                  |
|   \\  /    A nd           | Website:  www.openfoam.com                      |
|    \\/     M anipulation  |                                                 |
\*---------------------------------------------------------------------------*/
FoamFile
{
    version     2.0;
    format      ascii;
    arch        "LSB;label=32;scalar=64";
    class       surfaceScalarField;
    location    "6";
    object      phi;
}
// * * * * * * * * * * * * * * * * * * * * * * * * * * * * * * * * * * * * * //

dimensions      [0 3 -1 0 0 0 0];

oriented        oriented;

internalField   nonuniform List<scalar> 
65994
(
1.32509e-11
-1.32515e-11
2.00087e-11
-6.75784e-12
1.56871e-11
4.32164e-12
9.28531e-12
6.40178e-12
-1.55855e-12
1.08439e-11
-1.55855e-12
8.58567e-12
-2.18371e-11
4.93507e-12
-3.10724e-12
-4.93264e-12
1.41893e-11
-3.47348e-12
4.94262e-12
-3.51242e-13
7.72161e-12
-1.90979e-12
-5.04028e-12
-1.67969e-11
-1.65979e-11
8.45035e-12
-2.87232e-11
2.63147e-11
-3.00203e-11
6.2397e-12
-7.72296e-12
-1.45757e-11
-9.63275e-12
2.93959e-13
-1.70908e-11
-6.62802e-12
1.53723e-11
-2.05261e-11
4.02127e-11
-2.97869e-11
1.55005e-11
-2.02045e-11
-2.41582e-11
-2.98372e-11
4.41732e-12
-2.15081e-11
-3.69866e-13
2.01595e-11
-1.23889e-11
5.22317e-11
-2.06763e-11
2.3788e-11
-2.52467e-11
-1.95878e-11
-5.50839e-11
1.05786e-11
-3.20867e-11
1.1565e-11
1.91731e-11
1.08266e-12
6.27141e-11
-1.09952e-11
3.58659e-11
-2.47147e-11
-5.86829e-12
-7.97986e-11
1.40052e-11
-4.6092e-11
1.79552e-11
1.52231e-11
1.06346e-11
7.00346e-11
-3.15591e-12
4.96564e-11
-2.1819e-11
1.27948e-11
-1.01618e-10
1.72425e-11
-6.33345e-11
2.31706e-11
9.29504e-12
1.76857e-11
7.55196e-11
2.92241e-12
6.44196e-11
-1.92472e-11
3.49644e-11
-1.20865e-10
1.92155e-11
-8.25499e-11
2.68396e-11
1.67085e-12
2.36594e-11
7.86998e-11
9.75184e-12
7.83272e-11
-1.50192e-11
5.97355e-11
-1.35884e-10
2.04527e-11
-1.03003e-10
2.87858e-11
-6.66216e-12
2.59358e-11
8.15498e-11
1.22961e-11
9.19668e-11
-1.3875e-11
8.59067e-11
-1.49759e-10
2.20198e-11
-1.25022e-10
2.99939e-11
-1.46363e-11
2.44697e-11
8.7074e-11
1.06254e-11
1.05811e-10
-1.62966e-11
1.12829e-10
-1.66056e-10
2.45504e-11
-1.49573e-10
3.24627e-11
-2.25486e-11
2.40018e-11
9.5535e-11
1.09714e-11
1.18842e-10
-1.87427e-11
1.42543e-10
-1.84798e-10
2.42331e-11
-1.73806e-10
3.04086e-11
-2.87241e-11
2.40403e-11
1.01903e-10
1.38804e-11
1.29001e-10
-1.6319e-11
1.72742e-10
-2.01117e-10
1.76925e-11
-1.91498e-10
1.703e-11
-2.80616e-11
1.58482e-11
1.03085e-10
7.26679e-12
1.37583e-10
-9.28652e-12
1.89295e-10
-2.10404e-10
1.46582e-11
-2.06157e-10
8.82512e-12
-2.22286e-11
5.11421e-12
1.06796e-10
-4.45846e-12
1.47156e-10
-7.23121e-12
1.92068e-10
-2.17635e-10
1.36943e-11
-2.19851e-10
1.05167e-11
-1.90509e-11
1.89184e-12
1.15421e-10
-9.61299e-12
1.5866e-10
-1.10722e-11
1.93527e-10
-2.28707e-10
8.21207e-12
-2.28063e-10
8.68567e-12
-1.95245e-11
1.56324e-12
1.22543e-10
-1.02983e-11
1.70522e-10
-1.38927e-11
1.97122e-10
-2.426e-10
6.5185e-12
-2.34582e-10
8.42126e-12
-2.14273e-11
4.22023e-12
1.26744e-10
-8.11782e-12
1.8286e-10
-1.38322e-11
2.02836e-10
-2.56432e-10
7.26896e-12
-2.41851e-10
8.82566e-12
-2.2984e-11
5.56668e-12
1.30003e-10
-6.55918e-12
1.94986e-10
-1.28892e-11
2.09166e-10
-2.69321e-10
7.77467e-12
-2.49625e-10
8.19962e-12
-2.3409e-11
4.66909e-12
1.33534e-10
-6.82026e-12
2.06475e-10
-1.31706e-11
2.15517e-10
-2.82492e-10
8.41015e-12
-2.58035e-10
8.52769e-12
-2.35265e-11
4.76347e-12
1.37298e-10
-6.61138e-12
2.1785e-10
-1.34992e-11
2.22404e-10
-2.95991e-10
8.86994e-12
-2.66905e-10
8.81983e-12
-2.34764e-11
4.82497e-12
1.41293e-10
-6.37739e-12
2.29052e-10
-1.38548e-11
2.29882e-10
-3.09846e-10
9.28185e-12
-2.76187e-10
9.13911e-12
-2.33337e-11
4.90813e-12
1.45524e-10
-6.14628e-12
2.40107e-10
-1.42035e-11
2.37939e-10
-3.2405e-10
9.57985e-12
-2.85767e-10
9.34292e-12
-2.30968e-11
4.88818e-12
1.49978e-10
-5.99012e-12
2.50985e-10
-1.45817e-11
2.46531e-10
-3.38631e-10
9.74409e-12
-2.95511e-10
9.31091e-12
-2.26636e-11
4.5894e-12
1.547e-10
-6.00742e-12
2.61582e-10
-1.50341e-11
2.55557e-10
-3.53665e-10
9.70877e-12
-3.0522e-10
8.83538e-12
-2.17902e-11
3.72927e-12
1.59806e-10
-6.39067e-12
2.71702e-10
-1.5677e-11
2.64844e-10
-3.69342e-10
9.3992e-12
-3.14619e-10
7.6389e-12
-2.00299e-11
1.90109e-12
1.65544e-10
-7.38265e-12
2.80986e-10
-1.66327e-11
2.74094e-10
-3.85975e-10
8.79673e-12
-3.23416e-10
5.44092e-12
-1.66741e-11
-1.41757e-12
1.72402e-10
-9.28391e-12
2.88852e-10
-1.80076e-11
2.82817e-10
-4.03983e-10
8.12002e-12
-3.31536e-10
2.53928e-12
-1.10933e-11
-6.05049e-12
1.80992e-10
-1.18e-11
2.94601e-10
-1.94825e-11
2.905e-10
-4.23465e-10
7.71225e-12
-3.39248e-10
2.43353e-13
-3.62444e-12
-1.0312e-11
1.91547e-10
-1.39835e-11
2.98273e-10
-2.05472e-11
2.97064e-10
-4.44012e-10
8.09344e-12
-3.47342e-10
9.28284e-14
4.37618e-12
-1.23358e-11
2.03976e-10
-1.61877e-11
3.02125e-10
-2.21999e-11
3.03076e-10
-4.66212e-10
9.08315e-12
-3.56425e-10
1.1152e-12
1.23441e-11
-1.28884e-11
2.1798e-10
-1.91058e-11
3.08342e-10
-2.52188e-11
3.09189e-10
-4.91431e-10
9.85212e-12
-3.66277e-10
1.40512e-12
2.07911e-11
-1.34873e-11
2.32872e-10
-2.10134e-11
3.15868e-10
-2.7539e-11
3.15714e-10
-5.1897e-10
1.10444e-11
-3.77321e-10
1.98498e-12
2.98505e-11
-1.35427e-11
2.484e-10
-2.09125e-11
3.23238e-10
-2.80032e-11
3.22805e-10
-5.46973e-10
1.28056e-11
-3.90127e-10
3.12162e-12
3.95346e-11
-1.37589e-11
2.6528e-10
-2.11231e-11
3.30602e-10
-2.84197e-11
3.30102e-10
-5.75393e-10
1.39965e-11
-4.04123e-10
3.14115e-12
5.03899e-11
-1.57925e-11
2.84214e-10
-2.35251e-11
3.38335e-10
-3.01589e-11
3.36735e-10
-6.05552e-10
1.4782e-11
-4.18905e-10
2.4138e-12
6.27581e-11
-1.85474e-11
3.05175e-10
-2.7358e-11
3.47146e-10
-3.29804e-11
3.42358e-10
-6.38532e-10
1.55783e-11
-4.34484e-10
1.83463e-12
7.65018e-11
-2.09304e-11
3.2794e-10
-3.14622e-11
3.57677e-10
-3.63726e-11
3.47268e-10
-6.74905e-10
1.6318e-11
-4.50802e-10
1.37982e-12
9.144e-11
-2.30416e-11
3.52362e-10
-3.50409e-11
3.69677e-10
-3.96591e-11
3.51886e-10
-7.14564e-10
1.70855e-11
-4.67887e-10
8.98708e-13
1.07627e-10
-2.52804e-11
3.78541e-10
-3.79174e-11
3.82314e-10
-4.24221e-11
3.56391e-10
-7.56986e-10
1.79766e-11
-4.85864e-10
1.82236e-13
1.25421e-10
-2.82317e-11
4.06955e-10
-4.08558e-11
3.94938e-10
-4.50891e-11
3.60625e-10
-8.02075e-10
1.90528e-11
-5.04917e-10
-6.93991e-13
1.45168e-10
-3.18754e-11
4.38136e-10
-4.44389e-11
4.07501e-10
-4.81724e-11
3.64358e-10
-8.50248e-10
2.03339e-11
-5.2525e-10
-1.71575e-12
1.67218e-10
-3.60984e-11
4.72519e-10
-4.87638e-11
4.20167e-10
-5.18554e-11
3.6745e-10
-9.02103e-10
2.17883e-11
-5.47039e-10
-3.18796e-12
1.92194e-10
-4.12836e-11
5.10614e-10
-5.39901e-11
4.32873e-10
-5.61303e-11
3.6959e-10
-9.58233e-10
2.36408e-11
-5.7068e-10
-4.77192e-12
2.20607e-10
-4.70772e-11
5.5292e-10
-5.98265e-11
4.45622e-10
-6.07154e-11
3.70479e-10
-1.01895e-09
2.56505e-11
-5.9633e-10
-6.66191e-12
2.52919e-10
-5.27183e-11
5.98976e-10
-6.5577e-11
4.58481e-10
-6.44804e-11
3.69382e-10
-1.08343e-09
2.98258e-11
-6.26156e-10
-5.28746e-12
2.88032e-10
-5.71205e-11
6.50809e-10
-6.9808e-11
4.71169e-10
-6.41543e-11
3.63728e-10
-1.14758e-09
4.77062e-11
-6.73862e-10
2.59676e-11
3.09771e-10
-3.38231e-11
7.106e-10
-6.52456e-11
5.02591e-10
-6.02529e-11
3.58736e-10
-1.20784e-09
7.80853e-11
-7.51947e-10
9.87322e-11
2.89124e-10
5.13565e-11
7.57975e-10
-3.15564e-11
5.85504e-10
-4.96612e-11
3.76841e-10
-1.2575e-09
8.33138e-11
-8.35261e-10
1.40044e-10
2.32393e-10
1.33209e-10
7.64811e-10
2.35646e-11
6.95149e-10
-2.25034e-11
4.22908e-10
-1.28e-09
5.22626e-11
-8.87524e-10
1.05928e-10
1.78728e-10
1.32679e-10
7.3806e-10
5.29241e-11
7.74903e-10
6.74507e-12
4.69087e-10
-1.27326e-09
2.05094e-11
-9.08033e-10
5.78085e-11
1.41429e-10
9.7116e-11
6.98752e-10
5.35804e-11
8.18439e-10
2.22455e-11
5.00422e-10
-1.25101e-09
2.43321e-12
-9.10466e-10
2.94911e-11
1.14371e-10
7.17579e-11
6.56486e-10
5.04454e-11
8.39751e-10
3.01142e-11
5.20753e-10
-1.2209e-09
-7.33296e-12
-9.03133e-10
1.24383e-11
9.46e-11
5.22557e-11
6.16668e-10
4.63748e-11
8.45632e-10
3.36489e-11
5.33479e-10
-1.18725e-09
-1.19302e-11
-8.91203e-10
3.55253e-12
7.91173e-11
3.98039e-11
5.80417e-10
4.06689e-11
8.44767e-10
3.24903e-11
5.41658e-10
-1.15476e-09
-1.42433e-11
-8.7696e-10
-2.30978e-12
6.71838e-11
2.97186e-11
5.48388e-10
3.42652e-11
8.4022e-10
2.91389e-11
5.46784e-10
-1.12562e-09
-1.39533e-11
-8.63007e-10
-4.44031e-12
5.76708e-11
2.23848e-11
5.21563e-10
3.17472e-11
8.30858e-10
2.77356e-11
5.50796e-10
-1.09788e-09
-9.75884e-12
-8.53248e-10
2.23783e-12
4.56741e-11
2.61885e-11
4.97613e-10
3.55164e-11
8.2153e-10
2.87098e-11
5.57603e-10
-1.06917e-09
-4.63475e-12
-8.48613e-10
1.29624e-11
2.8077e-11
3.76941e-11
4.72881e-10
4.04484e-11
8.18776e-10
2.90324e-11
5.69019e-10
-1.04014e-09
-3.28275e-12
-8.4533e-10
1.66779e-11
8.11635e-12
4.25659e-11
4.46993e-10
4.16402e-11
8.19702e-10
2.83048e-11
5.82354e-10
-1.01184e-09
-4.88034e-12
-8.4045e-10
1.37045e-11
-1.04685e-11
3.91461e-11
4.21551e-10
4.04579e-11
8.1839e-10
2.78916e-11
5.9492e-10
-9.83944e-10
-5.74361e-12
-8.34706e-10
1.12569e-11
-2.7469e-11
3.51542e-11
3.97654e-10
3.92885e-11
8.14255e-10
2.7582e-11
6.06627e-10
-9.56362e-10
-5.22184e-12
-8.29484e-10
1.10148e-11
-4.37057e-11
3.30135e-11
3.75655e-10
3.81778e-11
8.09091e-10
2.676e-11
6.18045e-10
-9.29602e-10
-4.15641e-12
-8.25328e-10
1.17449e-11
-5.9607e-11
3.20288e-11
3.55371e-10
3.70782e-11
8.04042e-10
2.56418e-11
6.29481e-10
-9.0396e-10
-2.91815e-12
-8.2241e-10
1.28592e-11
-7.53843e-11
3.17144e-11
3.36516e-10
3.604e-11
7.99716e-10
2.43516e-11
6.41169e-10
-8.79608e-10
-1.37085e-12
-8.21039e-10
1.46101e-11
-9.13653e-11
3.26365e-11
3.1849e-10
3.62998e-11
7.96053e-10
2.43308e-11
6.53138e-10
-8.55278e-10
2.04088e-12
-8.2308e-10
2.01336e-11
-1.09458e-10
4.09406e-11
2.97683e-10
4.64836e-11
7.9051e-10
3.56782e-11
6.63944e-10
-8.19599e-10
5.70732e-12
-8.28787e-10
2.63494e-11
-1.301e-10
5.11959e-11
2.72836e-10
6.02257e-11
7.8148e-10
5.55189e-11
6.68651e-10
-7.64081e-10
5.69383e-12
-8.34481e-10
2.5374e-11
-1.4978e-10
4.81398e-11
2.50071e-10
5.64565e-11
7.73163e-10
5.70841e-11
6.68023e-10
-7.06997e-10
3.97796e-12
-8.38459e-10
2.10716e-11
-1.66874e-10
3.89273e-11
2.32215e-10
4.41109e-11
7.67979e-10
4.55017e-11
6.66632e-10
-6.61495e-10
3.15406e-12
-8.41613e-10
1.87691e-11
-1.82489e-10
3.38697e-11
2.17114e-10
3.74727e-11
7.64377e-10
3.91659e-11
6.64939e-10
-6.22329e-10
2.35331e-12
-8.43966e-10
1.72963e-11
-1.97432e-10
3.08911e-11
2.0352e-10
3.34392e-11
7.61828e-10
3.47828e-11
6.63595e-10
-5.87546e-10
1.01338e-12
-8.4498e-10
1.61256e-11
-2.12544e-10
2.99552e-11
1.8969e-10
3.13742e-11
7.60409e-10
3.15797e-11
6.6339e-10
-5.55966e-10
-1.38327e-14
-8.44966e-10
1.56754e-11
-2.28233e-10
3.17231e-11
1.73642e-10
3.28873e-11
7.59245e-10
3.08063e-11
6.65471e-10
-5.2516e-10
8.1742e-13
-8.45783e-10
1.54764e-11
-2.42892e-10
3.18387e-11
1.5728e-10
3.6583e-11
7.54501e-10
3.20572e-11
6.69997e-10
-4.93103e-10
3.60612e-12
-8.49389e-10
1.58149e-11
-2.55101e-10
2.73722e-11
1.45723e-10
3.66993e-11
7.45174e-10
3.12451e-11
6.75451e-10
-4.61858e-10
6.4571e-12
-8.55847e-10
1.8382e-11
-2.67026e-10
2.48288e-11
1.39276e-10
3.33321e-11
7.36671e-10
2.77832e-11
6.81e-10
-4.34075e-10
7.80632e-12
-8.63653e-10
2.11826e-11
-2.80402e-10
2.67482e-11
1.3371e-10
3.09361e-11
7.32483e-10
2.49337e-11
6.87002e-10
-4.09141e-10
8.20648e-12
-8.71859e-10
2.21931e-11
-2.94389e-10
2.89195e-11
1.26984e-10
3.00196e-11
7.31383e-10
2.33463e-11
6.93676e-10
-3.85795e-10
8.26167e-12
-8.80121e-10
2.20198e-11
-3.08147e-10
2.94091e-11
1.19595e-10
2.91911e-11
7.31601e-10
2.2075e-11
7.00792e-10
-3.6372e-10
7.69801e-12
-8.87819e-10
2.04399e-11
-3.20889e-10
2.75925e-11
1.12442e-10
2.74078e-11
7.31785e-10
2.04781e-11
7.07721e-10
-3.43242e-10
6.33214e-12
-8.94151e-10
1.69478e-11
-3.31505e-10
2.26619e-11
1.06728e-10
2.36046e-11
7.30843e-10
1.78179e-11
7.13508e-10
-3.25424e-10
4.49955e-12
-8.98651e-10
1.26672e-11
-3.39672e-10
1.57233e-11
1.03672e-10
1.85087e-11
7.28057e-10
1.45012e-11
7.17516e-10
-3.10922e-10
4.43671e-12
-9.03087e-10
1.146e-11
-3.46696e-10
1.22481e-11
1.02884e-10
1.51224e-11
7.25183e-10
1.19858e-11
7.20652e-10
-2.98937e-10
7.71194e-12
-9.10799e-10
1.53062e-11
-3.5429e-10
1.55889e-11
1.02601e-10
1.49972e-11
7.25775e-10
1.1003e-11
7.24646e-10
-2.87934e-10
1.00054e-11
-9.20805e-10
1.74172e-11
-3.61702e-10
1.82227e-11
1.01796e-10
1.4542e-11
7.29455e-10
1.00563e-11
7.29132e-10
-2.77877e-10
1.00845e-11
-9.30889e-10
1.57101e-11
-3.67327e-10
1.67291e-11
1.00777e-10
1.20641e-11
7.3412e-10
8.66764e-12
7.32529e-10
-2.6921e-10
1.04964e-11
-9.41386e-10
1.32151e-11
-3.70046e-10
1.28461e-11
1.01146e-10
8.68481e-12
7.38282e-10
8.26e-12
7.32953e-10
-2.6095e-10
1.08671e-11
-9.52253e-10
9.53624e-12
-3.68715e-10
5.85194e-12
1.0483e-10
5.41133e-12
7.38722e-10
9.82242e-12
7.28542e-10
-2.51127e-10
9.85776e-12
-9.62111e-10
7.92304e-12
-3.6678e-10
5.91789e-13
1.12161e-10
4.02166e-12
7.35292e-10
1.26866e-11
7.19877e-10
-2.38441e-10
7.1198e-12
-9.6923e-10
1.18196e-11
-3.7148e-10
2.0803e-12
1.21901e-10
3.70388e-12
7.33669e-10
1.28542e-11
7.10727e-10
-2.25586e-10
7.63827e-12
-9.76869e-10
2.19173e-11
-3.85759e-10
1.78403e-11
1.25978e-10
1.37397e-12
7.50135e-10
4.052e-12
7.08049e-10
-2.21534e-10
1.45292e-11
-9.91398e-10
3.28484e-11
-4.04078e-10
4.06623e-11
1.18164e-10
9.86953e-14
7.90699e-10
-6.59677e-12
7.14744e-10
-2.28131e-10
1.32363e-11
-1.00463e-09
1.40999e-11
-4.04942e-10
2.00947e-11
1.12169e-10
-1.15579e-11
8.22351e-10
-1.45955e-11
7.17782e-10
-2.42727e-10
7.75177e-12
-1.01239e-09
-6.23097e-12
-3.90959e-10
-9.43437e-12
1.15372e-10
-1.83548e-11
8.31272e-10
-1.61463e-11
7.15573e-10
-2.58873e-10
9.69823e-12
-1.02208e-09
4.69982e-12
-3.85961e-10
8.04576e-13
1.19268e-10
-6.22213e-12
8.38298e-10
-1.0647e-11
7.19998e-10
-2.6952e-10
1.06855e-11
-1.03277e-09
1.08495e-11
-3.86125e-10
8.04414e-12
1.22073e-10
-2.37423e-12
8.48717e-10
-1.00282e-11
7.27652e-10
-2.79548e-10
1.07601e-11
-1.04353e-09
1.01323e-11
-3.85497e-10
6.80823e-12
1.25397e-10
-4.47875e-12
8.60004e-10
-1.15787e-11
7.34752e-10
-2.91127e-10
1.11777e-11
-1.05471e-09
1.10444e-11
-3.85364e-10
7.35522e-12
1.29086e-10
-4.86447e-12
8.72223e-10
-1.22781e-11
7.42166e-10
-3.03405e-10
1.13079e-11
-1.06602e-09
1.10706e-11
-3.85126e-10
7.06887e-12
1.33088e-10
-5.57377e-12
8.84866e-10
-1.31491e-11
7.49741e-10
-3.16554e-10
1.13814e-11
-1.0774e-09
1.09778e-11
-3.84723e-10
6.78279e-12
1.37283e-10
-6.18328e-12
8.97832e-10
-1.39283e-11
7.57486e-10
-3.30482e-10
1.1305e-11
-1.0887e-09
1.05482e-11
-3.83966e-10
6.16735e-12
1.41664e-10
-6.95863e-12
9.10958e-10
-1.47866e-11
7.65314e-10
-3.45269e-10
1.10455e-11
-1.09975e-09
9.71478e-12
-3.82635e-10
5.11286e-12
1.46266e-10
-8.08152e-12
9.24152e-10
-1.58543e-11
7.73087e-10
-3.61123e-10
1.03498e-11
-1.1101e-09
7.97067e-12
-3.80256e-10
3.04302e-12
1.51193e-10
-9.90722e-12
9.37103e-10
-1.73193e-11
7.80499e-10
-3.78443e-10
8.84674e-12
-1.11894e-09
4.2655e-12
-3.75675e-10
-1.3783e-12
1.56837e-10
-1.35321e-11
9.49257e-10
-1.97818e-11
7.86749e-10
-3.98224e-10
5.82327e-12
-1.12477e-09
-3.04419e-12
-3.66807e-10
-1.03586e-11
1.64151e-10
-2.04813e-11
9.59379e-10
-2.40215e-11
7.90289e-10
-4.22246e-10
5.17619e-13
-1.12528e-09
-1.71068e-11
-3.49183e-10
-2.82071e-11
1.75252e-10
-3.47702e-11
9.65942e-10
-3.20573e-11
7.87576e-10
-4.54303e-10
-7.71302e-12
-1.11757e-09
-4.10734e-11
-3.15823e-10
-6.13846e-11
1.95563e-10
-5.91524e-11
9.6371e-10
-4.37493e-11
7.72173e-10
-4.98052e-10
-1.59712e-11
-1.1016e-09
-7.18395e-11
-2.59954e-10
-1.09004e-10
2.32727e-10
-9.06708e-11
9.45377e-10
-5.90312e-11
7.40533e-10
-5.57084e-10
-1.68595e-11
-1.08474e-09
-8.56315e-11
-1.91182e-10
-1.37438e-10
2.84534e-10
-1.15755e-10
9.23694e-10
-7.79947e-11
7.02773e-10
-6.35078e-10
-8.77568e-12
-1.07597e-09
-7.10064e-11
-1.28952e-10
-1.2347e-10
3.36997e-10
-1.23937e-10
9.24161e-10
-9.56179e-11
6.74454e-10
-7.30696e-10
1.16279e-12
-1.07713e-09
-5.625e-11
-7.15388e-11
-1.01563e-10
3.8231e-10
-1.26438e-10
9.49036e-10
-1.09054e-10
6.5707e-10
-8.3975e-10
9.31887e-12
-1.08645e-09
-5.13912e-11
-1.08287e-11
-9.11416e-11
4.2206e-10
-1.28229e-10
9.86124e-10
-1.17189e-10
6.4603e-10
-9.5694e-10
1.60632e-11
-1.10251e-09
-4.77461e-11
5.29806e-11
-8.46606e-11
4.58975e-10
-1.28142e-10
1.02961e-09
-1.22465e-10
6.40354e-10
-1.0794e-09
2.21004e-11
-1.12461e-09
-4.4513e-11
1.19594e-10
-7.94049e-11
4.93867e-10
-1.27376e-10
1.07758e-09
-1.27192e-10
6.4017e-10
-1.2066e-09
2.6402e-11
-1.15101e-09
-4.46458e-11
1.90642e-10
-8.05916e-11
5.29812e-10
-1.33643e-10
1.13063e-09
-1.37567e-10
6.44095e-10
-1.34416e-09
3.54621e-11
-1.18647e-09
-3.6771e-11
2.62875e-10
-6.73005e-11
5.60342e-10
-1.22107e-10
1.18543e-09
-1.32683e-10
6.54671e-10
-1.47685e-09
5.12529e-11
-1.23773e-09
-1.70438e-11
3.31172e-10
-3.0143e-11
5.73441e-10
-7.83416e-11
1.23363e-09
-7.59114e-11
6.52241e-10
-1.55276e-09
5.76526e-11
-1.29538e-09
-1.52234e-11
4.04048e-10
-2.51163e-11
5.83334e-10
-7.26022e-11
1.28112e-09
-4.46516e-11
6.2429e-10
-1.59741e-09
5.53191e-11
-1.3507e-09
-3.01995e-11
4.89566e-10
-5.2488e-11
6.05622e-10
-1.08961e-10
1.33759e-09
-7.05727e-11
5.85902e-10
-1.66798e-09
5.66216e-11
-1.40732e-09
-3.94915e-11
5.85679e-10
-7.03692e-11
6.365e-10
-1.33837e-10
1.40106e-09
-8.78903e-11
5.39955e-10
-1.75587e-09
6.39051e-11
-1.47123e-09
-3.98365e-11
6.89421e-10
-7.63649e-11
6.73029e-10
-1.46796e-10
1.47149e-09
-9.61007e-11
4.89259e-10
-1.85197e-09
8.1102e-11
-1.55233e-09
-2.61595e-11
7.96682e-10
-6.89701e-11
7.15839e-10
-1.49353e-10
1.55187e-09
-9.79454e-11
4.37852e-10
-1.94992e-09
1.19447e-10
-1.67177e-09
1.56751e-11
9.00454e-10
-3.9401e-11
7.70915e-10
-1.35994e-10
1.64847e-09
-9.10389e-11
3.92897e-10
-2.04096e-09
1.34383e-10
-1.80616e-09
5.98561e-11
9.74981e-10
1.02175e-12
8.2975e-10
-1.15337e-10
1.76482e-09
-8.03561e-11
3.57916e-10
-2.12131e-09
1.00136e-10
-1.90629e-09
8.65112e-11
9.88607e-10
4.49856e-11
8.71275e-10
-7.98865e-11
1.8897e-09
-6.18731e-11
3.39903e-10
-2.18319e-09
5.29445e-11
-1.95924e-09
1.08452e-10
9.33099e-10
8.65211e-11
8.93206e-10
7.72517e-12
1.96849e-09
-7.35362e-12
3.54982e-10
-2.19054e-09
1.65375e-11
-1.97578e-09
8.65658e-11
8.63071e-10
7.78711e-11
9.019e-10
6.39085e-11
1.98246e-09
3.44255e-11
3.84465e-10
-2.15612e-09
5.52642e-12
-1.9813e-09
5.79116e-11
8.10686e-10
5.26186e-11
9.07193e-10
6.00293e-11
1.97504e-09
3.75826e-11
4.06911e-10
-2.11853e-09
4.56312e-12
-1.98587e-09
5.61668e-11
7.59082e-10
5.00781e-11
9.13282e-10
5.91646e-11
1.96596e-09
3.83672e-11
4.27709e-10
-2.08017e-09
5.31752e-12
-1.99118e-09
5.49137e-11
7.09486e-10
4.89125e-11
9.19283e-10
5.62341e-11
1.95864e-09
3.68886e-11
4.47054e-10
-2.04328e-09
7.53797e-12
-1.99872e-09
5.81812e-11
6.58843e-10
5.2326e-11
9.25139e-10
5.63925e-11
1.95457e-09
3.66577e-11
4.66789e-10
-2.00662e-09
9.08639e-12
-2.00781e-09
6.13038e-11
6.06625e-10
5.81647e-11
9.28278e-10
5.89381e-11
1.9538e-09
3.67501e-11
4.88977e-10
-1.96987e-09
1.13424e-11
-2.01915e-09
6.29205e-11
5.55047e-10
6.37409e-11
9.27457e-10
5.9752e-11
1.95779e-09
3.37603e-11
5.14969e-10
-1.93611e-09
1.57988e-11
-2.03495e-09
6.24672e-11
5.08379e-10
6.23998e-11
9.27525e-10
5.4277e-11
1.96591e-09
2.62028e-11
5.43043e-10
-1.90991e-09
1.93729e-11
-2.05432e-09
5.93688e-11
4.68383e-10
5.24467e-11
9.34447e-10
4.3483e-11
1.97487e-09
1.72647e-11
5.69261e-10
-1.89264e-09
2.01953e-11
-2.07452e-09
5.66718e-11
4.31906e-10
4.25718e-11
9.48547e-10
3.28987e-11
1.98455e-09
1.05019e-11
5.91658e-10
-1.88214e-09
2.06307e-11
-2.09515e-09
5.78887e-11
3.94648e-10
3.97651e-11
9.6667e-10
2.77334e-11
1.99658e-09
7.2396e-12
6.12152e-10
-1.8749e-09
2.17834e-11
-2.11693e-09
6.1165e-11
3.55267e-10
4.1255e-11
9.8658e-10
2.66803e-11
2.01115e-09
5.83775e-12
6.32994e-10
-1.86906e-09
2.30708e-11
-2.14e-09
6.43207e-11
3.14017e-10
4.33078e-11
1.00759e-09
2.65664e-11
2.02789e-09
4.67506e-12
6.54886e-10
-1.86439e-09
2.41608e-11
-2.16416e-09
6.6982e-11
2.71196e-10
4.47887e-11
1.02979e-09
2.62694e-11
2.04641e-09
3.26241e-12
6.77893e-10
-1.86112e-09
2.48809e-11
-2.18904e-09
6.91652e-11
2.26911e-10
4.53315e-11
1.05362e-09
2.52436e-11
2.0665e-09
1.28161e-12
7.01855e-10
-1.85984e-09
2.49798e-11
-2.21402e-09
7.0949e-11
1.80942e-10
4.48954e-11
1.07967e-09
2.30573e-11
2.08834e-09
-1.07757e-12
7.2599e-10
-1.86092e-09
2.40641e-11
-2.23809e-09
7.2402e-11
1.32604e-10
4.47223e-11
1.10735e-09
2.07762e-11
2.11228e-09
-1.9007e-12
7.48666e-10
-1.86282e-09
2.19522e-11
-2.26004e-09
7.29497e-11
8.16065e-11
4.76547e-11
1.13265e-09
2.2799e-11
2.13714e-09
2.81833e-12
7.68647e-10
-1.86e-09
2.0403e-11
-2.28044e-09
7.25368e-11
2.94727e-11
5.63088e-11
1.14888e-09
3.47032e-11
2.15875e-09
1.49213e-11
7.88429e-10
-1.84508e-09
2.40308e-11
-2.30447e-09
7.47321e-11
-2.12287e-11
6.94458e-11
1.15416e-09
5.38214e-11
2.17437e-09
2.67117e-11
8.15539e-10
-1.81837e-09
3.55148e-11
-2.33999e-09
8.44912e-11
-7.02052e-11
8.0111e-11
1.15854e-09
6.37275e-11
2.19075e-09
2.33787e-11
8.55887e-10
-1.79499e-09
5.01888e-11
-2.39018e-09
1.00942e-10
-1.20958e-10
8.09976e-11
1.17849e-09
4.88753e-11
2.22288e-09
1.67722e-13
9.04595e-10
-1.79482e-09
5.95397e-11
-2.44972e-09
1.165e-10
-1.77919e-10
7.32612e-11
1.22173e-09
1.6392e-11
2.27974e-09
-2.71363e-11
9.48123e-10
-1.82196e-09
5.9054e-11
-2.50877e-09
1.23687e-10
-2.42551e-10
6.60219e-11
1.27939e-09
-7.57762e-12
2.35334e-09
-3.71966e-11
9.77742e-10
-1.85916e-09
5.11256e-11
-2.5599e-09
1.21641e-10
-3.13066e-10
6.66048e-11
1.33443e-09
-5.43466e-12
2.42538e-09
-2.56929e-11
9.98001e-10
-1.88485e-09
4.19187e-11
-2.60182e-09
1.1577e-10
-3.86917e-10
7.36532e-11
1.37654e-09
1.57164e-11
2.48332e-09
-6.53354e-12
1.02025e-09
-1.89138e-09
3.59977e-11
-2.63781e-09
1.11357e-10
-4.62276e-10
8.00828e-11
1.40782e-09
3.61928e-11
2.52721e-09
5.56373e-12
1.05088e-09
-1.88582e-09
3.44924e-11
-2.67231e-09
1.1093e-10
-5.38713e-10
8.24629e-11
1.43628e-09
4.46694e-11
2.565e-09
7.10301e-12
1.08845e-09
-1.87872e-09
3.56768e-11
-2.70798e-09
1.13755e-10
-6.16792e-10
8.24251e-11
1.46761e-09
4.36109e-11
2.60382e-09
3.55702e-12
1.1285e-09
-1.87516e-09
3.93661e-11
-2.74735e-09
1.21687e-10
-6.99112e-10
8.56439e-11
1.50366e-09
4.08804e-11
2.64858e-09
4.15065e-13
1.16897e-09
-1.87474e-09
4.43284e-11
-2.79168e-09
1.35589e-10
-7.90373e-10
9.61509e-11
1.54309e-09
4.09618e-11
2.70377e-09
9.49735e-13
1.20898e-09
-1.87379e-09
4.44229e-11
-2.8361e-09
1.45406e-10
-8.91356e-10
1.13084e-10
1.57542e-09
5.90927e-11
2.75776e-09
1.52884e-11
1.25278e-09
-1.85851e-09
4.98138e-11
-2.88591e-09
1.59774e-10
-1.00132e-09
1.44125e-10
1.59107e-09
1.05993e-10
2.79589e-09
3.92478e-11
1.31953e-09
-1.81926e-09
7.39225e-11
-2.95984e-09
1.96084e-10
-1.12348e-09
1.83814e-10
1.60334e-09
1.33299e-10
2.84641e-09
3.93185e-11
1.41351e-09
-1.77994e-09
9.77089e-11
-3.05754e-09
2.31949e-10
-1.25772e-09
2.05504e-10
1.62978e-09
9.97225e-11
2.95219e-09
5.64659e-12
1.50758e-09
-1.77429e-09
9.84287e-11
-3.15597e-09
2.36348e-10
-1.39564e-09
1.81828e-10
1.6843e-09
5.01046e-12
3.12901e-09
-6.58172e-11
1.57841e-09
-1.84011e-09
3.43567e-11
-3.19033e-09
1.19301e-10
-1.48058e-09
2.55393e-11
1.77806e-09
-1.28045e-10
3.28259e-09
-1.23728e-10
1.57409e-09
-1.96384e-09
-4.78685e-11
-3.14246e-09
-3.49236e-11
-1.49353e-09
-1.34141e-10
1.87728e-09
-1.79978e-10
3.32843e-09
-9.29524e-11
1.48707e-09
-2.05679e-09
-8.79756e-11
-3.05449e-09
-1.10579e-10
-1.47092e-09
-2.00486e-10
1.96719e-09
-1.97953e-10
3.32589e-09
-7.01843e-11
1.3593e-09
-2.12698e-09
-1.45543e-10
-2.90894e-09
-2.285e-10
-1.38797e-09
-3.29769e-10
2.06846e-09
-2.64919e-10
3.26104e-09
-9.84661e-11
1.19285e-09
-2.22544e-09
-1.96163e-10
-2.71278e-09
-3.32578e-10
-1.25155e-09
-4.26678e-10
2.16256e-09
-2.70673e-10
3.10504e-09
-8.58466e-11
1.00802e-09
-2.31129e-09
-2.01125e-10
-2.51165e-09
-3.43117e-10
-1.10956e-09
-4.15323e-10
2.23476e-09
-2.28657e-10
2.91837e-09
-5.75098e-11
8.36874e-10
-2.3688e-09
-1.91829e-10
-2.31983e-09
-3.26285e-10
-9.75104e-10
-3.86393e-10
2.29487e-09
-2.03974e-10
2.73596e-09
-4.96479e-11
6.82548e-10
-2.41845e-09
-1.79985e-10
-2.13984e-09
-3.04574e-10
-8.50516e-10
-3.58471e-10
2.34877e-09
-1.86177e-10
2.56366e-09
-4.51675e-11
5.41538e-10
-2.46361e-09
-1.69094e-10
-1.97075e-09
-2.84686e-10
-7.34923e-10
-3.35182e-10
2.39927e-09
-1.73294e-10
2.40177e-09
-4.29538e-11
4.11198e-10
-2.50657e-09
-1.59434e-10
-1.81131e-09
-2.67e-10
-6.27357e-10
-3.15184e-10
2.44745e-09
-1.6266e-10
2.24925e-09
-4.127e-11
2.89809e-10
-2.54784e-09
-1.50988e-10
-1.66032e-09
-2.51513e-10
-5.26832e-10
-2.98054e-10
2.49399e-09
-1.53918e-10
2.10511e-09
-4.01497e-11
1.76041e-10
-2.58799e-09
-1.43679e-10
-1.51664e-09
-2.38055e-10
-4.32457e-10
-2.83428e-10
2.53936e-09
-1.46763e-10
1.96845e-09
-3.93905e-11
6.86683e-11
-2.62738e-09
-1.37464e-10
-1.37918e-09
-2.26535e-10
-3.43386e-10
-2.7102e-10
2.58385e-09
-1.40872e-10
1.8383e-09
-3.88007e-11
-3.34033e-11
-2.66618e-09
-1.32137e-10
-1.24704e-09
-2.1658e-10
-2.58943e-10
-2.6028e-10
2.62755e-09
-1.3572e-10
1.71374e-09
-3.82274e-11
-1.30896e-10
-2.70441e-09
-1.27497e-10
-1.11955e-09
-2.07837e-10
-1.78603e-10
-2.50863e-10
2.67057e-09
-1.31145e-10
1.59402e-09
-3.77666e-11
-2.24274e-10
-2.74217e-09
-1.2346e-10
-9.96086e-10
-2.00156e-10
-1.01907e-10
-2.4274e-10
2.71316e-09
-1.27348e-10
1.47863e-09
-3.7561e-11
-3.14061e-10
-2.77973e-09
-1.20018e-10
-8.76068e-10
-1.93533e-10
-2.8392e-11
-2.35911e-10
2.75554e-09
-1.2445e-10
1.36717e-09
-3.76048e-11
-4.00906e-10
-2.81734e-09
-1.17174e-10
-7.58894e-10
-1.87976e-10
4.24101e-11
-2.30361e-10
2.79792e-09
-1.22402e-10
1.25921e-09
-3.78391e-11
-4.85469e-10
-2.85518e-09
-1.14967e-10
-6.43927e-10
-1.83579e-10
1.11022e-10
-2.2596e-10
2.8403e-09
-1.20945e-10
1.15419e-09
-3.81465e-11
-5.68267e-10
-2.89332e-09
-1.13367e-10
-5.30559e-10
-1.80147e-10
1.77801e-10
-2.22983e-10
2.88314e-09
-1.20563e-10
1.05177e-09
-3.87712e-11
-6.50059e-10
-2.93209e-09
-1.12447e-10
-4.18113e-10
-1.77938e-10
2.43293e-10
-2.20821e-10
2.92602e-09
-1.2014e-10
9.51092e-10
-3.88251e-11
-7.31374e-10
-2.97092e-09
-1.12608e-10
-3.05504e-10
-1.73667e-10
3.04352e-10
-2.1881e-10
2.97116e-09
-1.19748e-10
8.5203e-10
-3.84946e-11
-8.12627e-10
-3.00941e-09
-1.01745e-10
-2.0376e-10
-1.55635e-10
3.58243e-10
-1.9757e-10
3.0131e-09
-1.04629e-10
7.59088e-10
-3.03021e-11
-8.86953e-10
-3.03972e-09
-7.12244e-11
-1.32536e-10
-1.21276e-10
4.08294e-10
-1.38352e-10
3.03017e-09
-5.41934e-11
6.7493e-10
-6.233e-12
-9.34914e-10
-3.04595e-09
-4.26183e-11
-8.99172e-11
-8.05138e-11
4.4619e-10
-7.02046e-11
3.01987e-09
2.85274e-12
6.01873e-10
1.45996e-11
-9.46661e-10
-3.03135e-09
-2.80296e-11
-6.18877e-11
-4.41167e-11
4.62277e-10
-3.07017e-11
3.00645e-09
2.21164e-11
5.49055e-10
1.45743e-11
-9.39119e-10
-3.01678e-09
-1.47471e-11
-4.71406e-11
-1.82123e-11
4.65742e-10
-1.45545e-11
3.00279e-09
1.54189e-11
5.19081e-10
7.34207e-12
-9.31042e-10
-3.00943e-09
6.44793e-12
-5.35885e-11
7.14579e-12
4.65044e-10
1.14287e-11
2.99851e-09
2.33399e-11
5.0717e-10
1.03813e-11
-9.18083e-10
-2.99905e-09
2.35687e-11
-7.71572e-11
2.79906e-11
4.60622e-10
3.87922e-11
2.98771e-09
4.00939e-11
5.05868e-10
1.74127e-11
-8.95402e-10
-2.98164e-09
2.86009e-11
-1.05758e-10
3.48428e-11
4.54381e-10
4.73832e-11
2.97517e-09
4.56377e-11
5.07614e-10
1.93779e-11
-8.69142e-10
-2.96226e-09
2.95471e-11
-1.35305e-10
3.59885e-11
4.47939e-10
4.84538e-11
2.9627e-09
4.58412e-11
5.10226e-10
1.91627e-11
-8.42464e-10
-2.9431e-09
2.91961e-11
-1.64501e-10
3.54907e-11
4.41644e-10
4.72322e-11
2.95096e-09
4.43758e-11
5.13083e-10
1.82386e-11
-8.16326e-10
-2.92486e-09
2.85045e-11
-1.93006e-10
3.45977e-11
4.35551e-10
4.54212e-11
2.94014e-09
4.24601e-11
5.16044e-10
1.71187e-11
-7.90985e-10
-2.90774e-09
2.77551e-11
-2.20761e-10
3.36276e-11
4.29679e-10
4.34959e-11
2.93027e-09
4.0452e-11
5.19088e-10
1.59679e-11
-7.66501e-10
-2.89177e-09
2.69918e-11
-2.47753e-10
3.26209e-11
4.2405e-10
4.15332e-11
2.92136e-09
3.8431e-11
5.2219e-10
1.48295e-11
-7.42899e-10
-2.87694e-09
2.62417e-11
-2.73994e-10
3.16376e-11
4.18654e-10
3.96264e-11
2.91337e-09
3.648e-11
5.25336e-10
1.37407e-11
-7.2016e-10
-2.8632e-09
2.55728e-11
-2.99567e-10
3.07883e-11
4.13438e-10
3.79332e-11
2.90622e-09
3.47348e-11
5.28535e-10
1.27183e-11
-6.98144e-10
-2.85049e-09
2.49669e-11
-3.24534e-10
3.00081e-11
4.08397e-10
3.63095e-11
2.89992e-09
3.30303e-11
5.31814e-10
1.16938e-11
-6.76807e-10
-2.83879e-09
2.43329e-11
-3.48867e-10
2.91447e-11
4.03585e-10
3.45741e-11
2.89449e-09
3.11932e-11
5.35195e-10
1.06792e-11
-6.56293e-10
-2.82811e-09
2.36974e-11
-3.72564e-10
2.82793e-11
3.99003e-10
3.29347e-11
2.88984e-09
2.94886e-11
5.38641e-10
9.77343e-12
-6.36578e-10
-2.81834e-09
2.31204e-11
-3.95685e-10
2.75136e-11
3.9461e-10
3.15059e-11
2.88584e-09
2.80483e-11
5.42098e-10
8.95693e-12
-6.17487e-10
-2.80938e-09
2.25771e-11
-4.18262e-10
2.67957e-11
3.90391e-10
3.01471e-11
2.88249e-09
2.66868e-11
5.45559e-10
8.16204e-12
-5.98962e-10
-2.80122e-09
2.20983e-11
-4.4036e-10
2.61894e-11
3.863e-10
2.89112e-11
2.87977e-09
2.5397e-11
5.49073e-10
7.38013e-12
-5.80945e-10
-2.79384e-09
2.16871e-11
-4.62047e-10
2.56659e-11
3.82321e-10
2.7755e-11
2.87768e-09
2.41341e-11
5.52694e-10
6.599e-12
-5.6341e-10
-2.78724e-09
2.12247e-11
-4.83272e-10
2.50076e-11
3.78539e-10
2.64662e-11
2.87622e-09
2.27667e-11
5.56393e-10
5.84696e-12
-5.4649e-10
-2.78139e-09
2.07267e-11
-5.03999e-10
2.43056e-11
3.7496e-10
2.52118e-11
2.87532e-09
2.14912e-11
5.60114e-10
5.17953e-12
-5.30178e-10
-2.77621e-09
2.031e-11
-5.24309e-10
2.37694e-11
3.715e-10
2.41928e-11
2.87489e-09
2.04599e-11
5.63847e-10
4.56075e-12
-5.14279e-10
-2.77165e-09
1.99656e-11
-5.44274e-10
2.33356e-11
3.6813e-10
2.32734e-11
2.87496e-09
1.94906e-11
5.6763e-10
3.93757e-12
-4.98726e-10
-2.76772e-09
1.96363e-11
-5.6391e-10
2.29002e-11
3.64866e-10
2.2342e-11
2.87551e-09
1.84666e-11
5.71505e-10
3.31661e-12
-4.83576e-10
-2.7644e-09
1.9276e-11
-5.83186e-10
2.23919e-11
3.6175e-10
2.13421e-11
2.87656e-09
1.73853e-11
5.75462e-10
2.71348e-12
-4.68904e-10
-2.76169e-09
1.88636e-11
-6.0205e-10
2.17874e-11
3.58827e-10
2.02835e-11
2.87807e-09
1.63072e-11
5.79438e-10
2.16522e-12
-4.54762e-10
-2.75952e-09
1.85033e-11
-6.20553e-10
2.1299e-11
3.56031e-10
1.94363e-11
2.87993e-09
1.54717e-11
5.83403e-10
1.69346e-12
-4.40984e-10