/*--------------------------------*- C++ -*----------------------------------*\
| =========                 |                                                 |
| \\      /  F ield         | OpenFOAM: The Open Source CFD Toolbox           |
|  \\    /   O peration     | Version:  2206                                  |
|   \\  /    A nd           | Website:  www.openfoam.com                      |
|    \\/     M anipulation  |                                                 |
\*---------------------------------------------------------------------------*/
FoamFile
{
    version     2.0;
    format      ascii;
    arch        "LSB;label=32;scalar=64";
    class       volVectorField;
    location    "6";
    object      U;
}
// * * * * * * * * * * * * * * * * * * * * * * * * * * * * * * * * * * * * * //

dimensions      [0 1 -1 0 0 0 0];

internalField   nonuniform List<vector> 
36000
(
(-765.263 1.56071e-05 304.739)
(1123.41 3.52572e-05 1013.2)
(3301.44 4.88712e-05 999.998)
(4246.21 6.69942e-05 736.554)
(4308.18 0.000164012 272.736)
(1347.96 7.04177e-05 311.164)
(-1770.89 2.89494e-05 82.6674)
(470.145 6.94656e-05 153.902)
(2345.47 0.00011035 33.6669)
(1756.61 0.000160854 -145.905)
(2912.37 0.000227369 34.3749)
(518.149 0.000116048 259.642)
(-1421.41 3.3819e-05 2.50291)
(-13.4237 7.91033e-05 -122.169)
(1036.44 0.000121401 -238.22)
(-190.444 0.000176105 -321.943)
(-979.213 0.000208144 -252.501)
(-427.94 0.000138906 151.467)
(-639.998 3.71965e-05 27.7417)
(922.465 8.54002e-05 -25.339)
(2016.65 0.000133854 -98.7493)
(850.981 0.000193322 -163.06)
(-957.397 0.000198749 -255.99)
(-836.031 0.000162399 64.0327)
(-726.177 4.14485e-05 31.508)
(729.118 9.33427e-05 16.9768)
(1800.13 0.000151246 -30.1513)
(702.771 0.000218792 -82.9608)
(-1000.72 0.000224576 -163.435)
(-1746.28 0.000203359 11.5839)
(-815.26 4.56134e-05 37.1315)
(731.325 0.000100719 64.5692)
(1972.84 0.000166937 41.1226)
(1028.34 0.000243525 -14.3301)
(-389.403 0.000262285 -85.3754)
(-2221.78 0.00025417 -9.39507)
(-1081.89 5.13598e-05 35.7677)
(456.754 0.000111573 76.6935)
(1825.93 0.000185103 69.9762)
(1165.81 0.000268536 21.8855)
(82.0408 0.000302285 -34.5864)
(-2536.94 0.000307592 -13.5892)
(-1314.01 5.8773e-05 34.7927)
(289.687 0.000126117 82.0038)
(1752.21 0.000205817 84.1458)
(1377.68 0.000294415 43.7155)
(566.547 0.000345109 -5.29188)
(-2707.97 0.000363249 -14.306)
(-1539.8 6.64417e-05 32.6094)
(124.279 0.000141143 80.6623)
(1645.63 0.000226202 90.434)
(1527.84 0.000319022 60.9116)
(1014.93 0.000388924 19.3632)
(-2731.19 0.000421135 -9.97495)
(-1758.8 7.4379e-05 30.0395)
(-53.1965 0.000156865 75.781)
(1508.46 0.000247305 87.2136)
(1617.85 0.000343484 61.8053)
(1387.61 0.000434422 28.5469)
(-2693.64 0.000482464 -10.8458)
(-1958.88 8.28419e-05 28.4534)
(-196.538 0.000173598 71.3703)
(1419.54 0.000269574 79.12)
(1689.21 0.000367822 49.6521)
(1707.31 0.00048084 27.5652)
(-2700.14 0.000544245 -16.862)
(-2150.7 9.22046e-05 28.4005)
(-299.798 0.000191862 70.2561)
(1412.15 0.000293461 75.7566)
(1751.82 0.000392162 43.4374)
(1977.47 0.000528117 28.1713)
(-2752.47 0.000606572 -22.0099)
(-2322.77 0.000102612 25.3916)
(-361.462 0.000212058 61.0362)
(1470.63 0.000319602 68.0717)
(1832.55 0.000416439 42.0336)
(2312.53 0.000575262 35.6223)
(-2778.3 0.000669082 -19.4766)
(-2424.71 0.000113388 16.5952)
(-371.534 0.00023374 37.0286)
(1426.69 0.000350035 40.3804)
(1848.3 0.000450271 18.5143)
(2520.38 0.000624368 35.9392)
(-2714.43 0.000732478 -9.76861)
(-2458.54 0.000123152 12.3988)
(-315.597 0.000254367 25.8137)
(1266.22 0.000381035 18.5524)
(1742.28 0.00049329 -8.2282)
(2371.29 0.000676115 23.5956)
(-2649.56 0.000797462 -6.44426)
(-2508.07 0.000132738 10.2254)
(-234.982 0.000274563 25.8258)
(1275.44 0.000410814 15.9917)
(1754.9 0.000534036 -15.5079)
(2222.56 0.000727384 12.6564)
(-2594.78 0.000862313 -10.7653)
(-2462.9 0.000142442 4.23009)
(-212.663 0.000294918 19.2291)
(1299.29 0.000440596 12.999)
(1784.61 0.000574795 -14.5415)
(2117.07 0.000778972 7.09438)
(-2574.11 0.000926399 -13.5355)
(-2369.29 0.000151718 2.31848)
(-203.168 0.000314154 17.2085)
(1293.43 0.000468245 13.8319)
(1821.82 0.000614333 -8.06635)
(2054.49 0.000831281 6.31127)
(-2566.77 0.000990708 -12.9483)
(-2318.55 0.000160886 2.63263)
(-222.335 0.000333157 17.5167)
(1246.06 0.000495461 13.6767)
(1839.16 0.000653249 -3.74268)
(2003.78 0.000883234 6.15935)
(-2557.73 0.00105561 -11.4932)
(-2266.86 0.00017005 2.76159)
(-215.835 0.00035244 17.0339)
(1214.16 0.000523445 11.0986)
(1851.25 0.000692594 -3.47419)
(1957.38 0.000934893 4.59676)
(-2547.4 0.00112068 -11.3428)
(-2228.74 0.000179155 2.94912)
(-207.708 0.000371667 17.2035)
(1186.57 0.000551406 10.3369)
(1861.43 0.000731667 -2.3308)
(1919.83 0.000986137 3.57924)
(-2540.36 0.00118544 -11.2681)
(-2197.13 0.00018828 3.01332)
(-197.842 0.000391008 17.1763)
(1164.04 0.000579616 9.66262)
(1869.59 0.000770751 -1.44126)
(1890.92 0.00103714 2.82476)
(-2536.64 0.00124985 -11.2027)
(-2172.32 0.000197402 3.04739)
(-188.128 0.00041042 17.0929)
(1145.39 0.000608041 9.15427)
(1875.7 0.000809922 -0.737549)
(1869.25 0.001088 2.25547)
(-2536.03 0.00131395 -11.1229)
(-2152.22 0.000206545 3.01418)
(-178.641 0.000429922 16.8495)
(1130.02 0.000636686 8.59918)
(1880.13 0.000849182 -0.297575)
(1853.73 0.00113877 1.78578)
(-2538.24 0.00137778 -11.0665)
(-2135.73 0.000215733 2.90825)
(-169.217 0.000449551 16.3925)
(1117.41 0.000665599 7.79725)
(1882.53 0.000888554 -0.235022)
(1843.08 0.00118947 1.33621)
(-2543.32 0.00144137 -11.0654)
(-2121.25 0.000225018 2.70106)
(-158.733 0.0004694 15.6051)
(1107.63 0.00069491 6.45715)
(1881.89 0.000928109 -0.766535)
(1835.69 0.00124014 0.771295)
(-2551.91 0.00150477 -11.1973)
(-2107 0.000234481 2.36986)
(-145.077 0.000489639 14.3371)
(1101.52 0.000724869 4.20433)
(1877.08 0.00096796 -2.16469)
(1829.79 0.00129082 -0.0344589)
(-2565.32 0.00156802 -11.5293)
(-2090.93 0.000244221 1.94391)
(-124.958 0.000510541 12.4712)
(1100.69 0.000755982 0.648804)
(1865.19 0.00100842 -4.75007)
(1822.66 0.00134158 -1.23036)
(-2585.46 0.00163124 -12.0982)
(-2070.52 0.000254288 1.60458)
(-92.6356 0.0005324 10.2584)
(1110.38 0.000789012 -3.80814)
(1844.09 0.00104999 -8.12963)
(1811.31 0.00139255 -2.61467)
(-2613.32 0.00169458 -12.6367)
(-2046.97 0.000264396 1.53407)
(-46.8588 0.000554862 8.50583)
(1133.11 0.000824253 -7.27742)
(1810.15 0.0010936 -11.0896)
(1793.4 0.00144401 -3.85912)
(-2646.77 0.00175837 -12.7801)
(-2026.42 0.000274191 1.80295)
(1.06552 0.000576634 8.15878)
(1161.21 0.000859054 -7.83568)
(1765.14 0.00113834 -13.2318)
(1769.22 0.00149597 -5.53006)
(-2686.04 0.00182269 -13.2367)
(-2012.78 0.000283965 2.19708)
(44.2475 0.000597843 8.50261)
(1198.09 0.000891355 -6.87705)
(1735.31 0.00118123 -15.0408)
(1746.29 0.00154742 -7.65492)
(-2736.58 0.00188674 -14.5707)
(-2001.58 0.000294047 2.54418)
(90.1876 0.000619836 8.22332)
(1246.55 0.000923981 -6.56738)
(1727.17 0.00122277 -15.9921)
(1728.96 0.00159808 -8.7709)
(-2798.66 0.00195004 -15.4866)
(-1994.56 0.00030373 3.19196)
(136.555 0.000641768 8.25772)
(1293.4 0.000958028 -5.92885)
(1717.81 0.00126532 -15.6686)
(1714.75 0.00164892 -8.63226)
(-2864.1 0.00201318 -15.2556)
(-2000.76 0.000312703 3.9801)
(179.804 0.000662361 8.94754)
(1336.98 0.000991149 -5.07027)
(1704.28 0.00130831 -15.7209)
(1703.03 0.00170024 -8.65308)
(-2927.97 0.00207654 -14.9538)
(-2014.71 0.000321676 4.43029)
(224.65 0.000682634 9.09182)
(1387.98 0.00102358 -5.60316)
(1692.64 0.00135146 -17.5203)
(1690.72 0.00175201 -9.68751)
(-2993.76 0.00214035 -15.338)
(-2030.76 0.000330744 4.68952)
(275.623 0.000702989 8.86575)
(1448.09 0.00105588 -6.76185)
(1685.09 0.001395 -20.1518)
(1674.01 0.00180416 -11.4403)
(-3067.3 0.0022047 -16.2379)
(-2050.06 0.000339949 4.90585)
(330.664 0.000723417 8.69545)
(1513.79 0.00108765 -7.62493)
(1685.85 0.00143811 -22.6114)
(1653.87 0.00185624 -13.334)
(-3152.08 0.00226922 -17.3916)
(-2070.89 0.000349372 5.09166)
(389.979 0.000744177 8.47115)
(1585.85 0.00111938 -8.30043)
(1696.22 0.00148062 -24.5593)
(1633.01 0.00190796 -14.8704)
(-3248.1 0.00233355 -18.4679)
(-2094.24 0.00035888 5.30033)
(450.915 0.000765139 8.21562)
(1661.1 0.00115136 -9.03776)
(1710.98 0.00152291 -26.1175)
(1612.79 0.00195939 -15.9151)
(-3352.92 0.00239766 -19.2598)
(-2120.49 0.000368443 5.55942)
(514.792 0.000786267 7.92968)
(1740.58 0.00118382 -10.1178)
(1724.88 0.00156549 -27.8852)
(1592.54 0.0020108 -16.8397)
(-3464.59 0.00246173 -19.9649)
(-2150.07 0.000378052 5.87837)
(582.975 0.00080751 7.66909)
(1826.6 0.00121667 -11.4462)
(1736.95 0.00160852 -30.1211)
(1571.36 0.00206231 -17.9545)
(-3583.36 0.00252586 -20.812)
(-2183.28 0.000387751 6.25664)
(656.947 0.000828933 7.42939)
(1921.31 0.0012499 -12.9603)
(1748.53 0.00165198 -32.7911)
(1548.55 0.00211397 -19.3042)
(-3710.99 0.0025901 -21.8736)
(-2220.72 0.000397563 6.68931)
(737.804 0.000850616 7.11281)
(2025.78 0.00128367 -14.9018)
(1760.39 0.00169593 -36.052)
(1524.09 0.00216575 -20.9246)
(-3849.03 0.00265448 -23.125)
(-2262.4 0.000407515 7.25977)
(828.885 0.000872749 6.85723)
(2142.07 0.00131837 -17.0325)
(1771.5 0.00174069 -39.5939)
(1495.8 0.00221786 -22.6557)
(-3999.12 0.00271922 -24.4316)
(-2309.22 0.0004174 7.9346)
(931.487 0.000895227 6.57834)
(2273.81 0.00135464 -19.148)
(1785.52 0.00178707 -42.9567)
(1464.89 0.00227022 -24.2154)
(-4158.47 0.00278452 -25.3032)
(-2358.68 0.000426857 9.38233)
(1048.65 0.00091754 7.80961)
(2416.41 0.00139175 -19.6245)
(1805.17 0.00183552 -45.0863)
(1427.56 0.00232383 -24.8624)
(-4316.85 0.00285133 -24.4003)
(-2435.19 0.000434047 15.3439)
(1160.66 0.000936973 20.0103)
(2573.5 0.00142815 -0.197804)
(1808.39 0.00188583 -36.0492)
(1360.7 0.0023776 -23.8214)
(-4467.69 0.00291675 -22.038)
(-2609.56 0.000435425 24.7608)
(1170.84 0.000944266 45.6496)
(2766.59 0.00144306 52.9214)
(1965.67 0.00191964 0.251843)
(1331.04 0.00242263 -15.5816)
(-4587.16 0.00297032 -17.8452)
(-2878.14 0.000434278 25.1531)
(986.676 0.00094151 57.3217)
(2858.98 0.00142669 91.2162)
(2385.82 0.00192299 43.4107)
(1458.64 0.00245971 1.84076)
(-4610.95 0.00301489 -8.36639)
(-3083.82 0.000438465 14.4797)
(733.714 0.000947598 41.6078)
(2730.8 0.00141908 77.062)
(2699.94 0.00192876 54.3795)
(1622.51 0.0025008 15.2447)
(-4537.12 0.0030658 1.89264)
(-3144.45 0.000445991 4.53782)
(560.569 0.000962225 22.876)
(2535.97 0.00143132 48.5089)
(2823.25 0.00195263 44.98)
(1714.08 0.002548 19.5559)
(-4403.1 0.00312276 7.22589)
(-3121.02 0.000454436 -0.935175)
(436.731 0.000979237 12.3383)
(2333.07 0.00145007 30.4074)
(2869.24 0.00198185 37.0148)
(1764.1 0.00259571 21.1643)
(-4232.3 0.00317906 9.65654)
(-3054.11 0.000463873 -3.76796)
(347.871 0.000999098 6.39611)
(2140.19 0.00147669 18.2155)
(2845.02 0.00201752 30.3514)
(1779.7 0.00264425 21.4291)
(-4048.44 0.00323538 10.6092)
(-2967.81 0.000473436 -5.07013)
(281.558 0.00101944 3.58681)
(1969.46 0.00150589 11.1729)
(2789.17 0.0020566 24.9331)
(1776.92 0.00269391 20.1825)
(-3866.23 0.00329212 10.032)
(-2871.81 0.000483875 -5.72119)
(230.555 0.00104106 1.81367)
(1820.56 0.00153593 6.00801)
(2730.78 0.00209634 20.2145)
(1765.49 0.00274425 18.2506)
(-3697.26 0.00334956 8.80311)
(-2770.37 0.000494636 -5.47077)
(197.049 0.00106434 1.20413)
(1698.11 0.0015703 2.85514)
(2663.75 0.00213813 17.6401)
(1747.54 0.00279461 17.3079)
(-3542.22 0.00340737 8.26691)
(-2681.35 0.000503961 -4.1128)
(165.703 0.00108624 3.35851)
(1593.24 0.00160705 5.77948)
(2580.36 0.00218283 19.1633)
(1730.37 0.00284561 17.7235)
(-3393.23 0.00346531 8.48986)
(-2617.04 0.000511695 -2.77947)
(115.244 0.00110419 6.74122)
(1490.44 0.00163672 12.1303)
(2513.95 0.00222422 22.4267)
(1728.84 0.00289639 18.2246)
(-3246.14 0.00352271 8.41757)
(-2565.08 0.000519912 -2.58532)
(52.2101 0.00112165 7.82277)
(1388.28 0.00166149 14.2681)
(2476.29 0.00226069 23.3938)
(1741.06 0.00294562 18.1441)
(-3103.92 0.00357922 7.97984)
(-2509.87 0.000529052 -3.02407)
(-6.20415 0.00114117 6.843)
(1289.31 0.00168949 12.0098)
(2438.19 0.00229802 22.1379)
(1752.01 0.00299464 17.8104)
(-2968.71 0.00363565 7.69888)
(-2452.21 0.000538256 -3.20305)
(-57.5174 0.00116133 6.14215)
(1195.19 0.00172029 9.84642)
(2388.6 0.0023377 20.7306)
(1758.15 0.00304427 17.4326)
(-2839.46 0.0036924 7.49993)
(-2397.03 0.000547416 -3.04938)
(-104.439 0.00118147 6.14366)
(1109.32 0.00175172 8.92674)
(2335.44 0.0023783 19.6682)
(1762.76 0.00309428 16.9259)
(-2715.93 0.00374936 7.16835)
(-2345.9 0.000556546 -2.7717)
(-148.174 0.00120161 6.41739)
(1032.1 0.0017834 8.63876)
(2283.57 0.00241931 18.8386)
(1767.08 0.00314454 16.3461)
(-2599.13 0.00380648 6.76364)
(-2299.61 0.000565619 -2.4643)
(-189.983 0.00122165 6.78881)
(961.718 0.00181506 8.65077)
(2234.94 0.00246045 18.1712)
(1771.9 0.00319493 15.7414)
(-2488.65 0.00386371 6.32108)
(-2258.57 0.000574656 -2.09957)
(-230.592 0.00124162 7.3161)
(896.7 0.00184666 9.14692)
(2190.09 0.00250163 18.0983)
(1777.46 0.00324541 15.5511)
(-2385.47 0.00392107 6.23803)
(-2225.51 0.000583657 -1.34032)
(-273.158 0.00126151 8.79094)
(830.791 0.00187817 12.42)
(2144.22 0.0025428 21.9283)
(1780.53 0.00329595 18.7189)
(-2287.86 0.00397837 9.26262)
(-2202.88 0.000592635 -0.553492)
(-320.64 0.00128136 10.3833)
(758.333 0.00190958 16.2467)
(2094.81 0.00258389 26.8558)
(1781.34 0.00334641 23.6785)
(-2127.15 0.00403621 14.4893)
(-2185.76 0.000601602 -0.573248)
(-368.999 0.00130118 10.1285)
(684.666 0.00194101 14.9812)
(2041.44 0.00262508 24.9411)
(1758.53 0.00339749 23.0225)
(-1918.4 0.00409833 14.5867)
(-2166.93 0.000610569 -0.949533)
(-411.359 0.00132101 9.04951)
(622.146 0.0019725 11.4752)
(1994.22 0.00266641 19.9682)
(1728.71 0.00344896 19.0071)
(-1766.87 0.00416172 11.2691)
(-2145.56 0.00061955 -1.13692)
(-447.293 0.00134087 8.44576)
(571.22 0.00200412 9.51651)
(1954.55 0.0027079 17.2512)
(1699.36 0.00350066 16.7216)
(-1636.38 0.00422546 9.4037)
(-2123.13 0.000628561 -1.32729)
(-479.316 0.00136077 7.94523)
(527.273 0.00203593 8.29019)
(1919.27 0.00274966 15.599)
(1671.16 0.00355251 15.1608)
(-1521.29 0.00428928 8.1164)
(-2098.73 0.000637659 -1.63244)
(-509.762 0.00138067 7.31002)
(486.963 0.00206751 7.72008)
(1887.24 0.00279181 14.7427)
(1645.28 0.00360454 14.065)
(-1419.3 0.00435312 7.19603)
(-2069.76 0.000646765 -1.82728)
(-539.83 0.00140039 6.67423)
(446.006 0.00209801 7.96251)
(1860.62 0.00283296 15.2276)
(1624.92 0.00365612 13.9238)
(-1324.89 0.00441691 6.82803)
(-2040.51 0.0006552 -1.52422)
(-570.322 0.00141929 6.33059)
(399 0.00212906 7.66972)
(1833.12 0.00287098 16.0904)
(1612.7 0.00370504 14.6299)
(-1230.05 0.00447962 6.85524)
(-2019.56 0.000663378 -0.793501)
(-596.133 0.00143847 6.62222)
(354.782 0.00216404 6.517)
(1787.95 0.00291043 15.2052)
(1603.07 0.00375388 14.5173)
(-1137.41 0.00454182 6.47627)
(-2006.34 0.000671707 -0.193111)
(-614.777 0.00145784 7.44365)
(330.799 0.0021989 6.62377)
(1738.57 0.00295325 13.5479)
(1594.23 0.00380535 13.2906)
(-1053.73 0.00460481 5.61986)
(-1997.53 0.000680121 0.0254105)
(-636.104 0.00147678 8.02169)
(315.962 0.00223077 7.81145)
(1702.3 0.00299576 12.8448)
(1587.31 0.00385759 12.2187)
(-979.3 0.00466818 4.91615)
(-1990.29 0.000688809 0.0726599)
(-659.742 0.00149601 8.14722)
(298.243 0.00226191 8.51372)
(1676.2 0.00303735 12.6671)
(1581.9 0.00390972 11.5971)
(-911.449 0.00473149 4.46513)
(-1984.06 0.000697686 0.0512167)
(-683.089 0.00151554 8.01822)
(278.153 0.00229302 8.51576)
(1655.01 0.00307842 12.3631)
(1577.96 0.0039616 11.0927)
(-848.4 0.00479465 4.08065)
(-1977.81 0.000706933 -0.0822142)
(-704.88 0.00153574 7.52357)
(257.79 0.00232487 7.70132)
(1635.53 0.0031194 11.6021)
(1574.4 0.00401332 10.4495)
(-790.082 0.00485766 3.65652)
(-1969.69 0.000716747 -0.328885)
(-722.886 0.00155715 6.52324)
(239.296 0.00235862 5.85111)
(1614.86 0.003161 10.0635)
(1569.61 0.00406525 9.37269)
(-737.413 0.0049207 3.04639)
(-1957.31 0.000727215 -0.563686)
(-733.912 0.00158029 5.19816)
(226.938 0.00239588 3.43555)
(1592.07 0.00320397 8.08297)
(1561.8 0.0041174 8.05759)
(-692.644 0.00498368 2.38545)
(-1941.26 0.00073745 -0.376889)
(-740.187 0.00160354 4.64718)
(221.263 0.00243581 2.58314)
(1564.66 0.00325145 6.70325)
(1549.53 0.00417164 6.96858)
(-656.973 0.00504731 1.99954)
(-1929.6 0.000746143 0.260356)
(-746.224 0.00162346 5.65789)
(218.558 0.00247037 4.31141)
(1542.21 0.00329897 6.66461)
(1538.05 0.00422676 6.41174)
(-625.528 0.00511135 1.87579)
(-1929.15 0.000755001 0.603729)
(-755.525 0.00164295 6.27181)
(213.977 0.00250144 5.37518)
(1530.02 0.00334239 6.68608)
(1529.82 0.00428019 5.92527)
(-595.539 0.00517482 1.66728)
(-1926.96 0.000764751 0.632105)
(-760.042 0.00166421 5.89207)
(209.8 0.00253458 4.73814)
(1521.65 0.0033851 5.92762)
(1521.01 0.00433277 5.19022)
(-569.33 0.00523778 1.38084)
(-1926.11 0.000775019 0.735495)
(-760.989 0.00168674 5.46774)
(205.485 0.00256939 3.4429)
(1514.69 0.00342832 4.77024)
(1509.13 0.00438553 4.49228)
(-545.867 0.00530076 1.2754)
(-1927.33 0.000786063 0.868196)
(-755.036 0.00171139 4.84527)
(204.744 0.00260777 1.33597)
(1502.77 0.00347297 3.25137)
(1487.31 0.00443792 4.10923)
(-524.065 0.00536324 1.56754)
(-1927.67 0.000798258 0.718497)
(-739.381 0.00173878 4.27681)
(214.474 0.00264936 0.364724)
(1481.29 0.00352203 1.986)
(1456.27 0.0044926 3.98703)
(-496.001 0.00542631 1.99539)
(-1922.3 0.000810701 0.296888)
(-729.159 0.00176655 3.98127)
(231.844 0.00268974 1.46266)
(1458.14 0.00356654 2.07861)
(1422 0.00454393 4.09035)
(-459.039 0.00548788 1.90609)
(-1910.19 0.00082049 0.585205)
(-738.733 0.00178949 5.36607)
(252.878 0.00272922 6.62482)
(1445.83 0.00362143 2.82567)
(1390.73 0.00460078 2.59471)
(-431.683 0.00555054 0.709696)
(-1903.98 0.000822474 1.2369)
(-762.899 0.00179414 8.81841)
(252.677 0.00273764 13.1714)
(1499.18 0.00366899 4.69464)
(1386.9 0.0046643 0.427274)
(-427.029 0.00561756 -0.585757)
(-1932.38 0.000827183 0.765558)
(-800.152 0.00180301 6.32696)
(207.51 0.00274797 4.98723)
(1564.92 0.00369643 1.78767)
(1383.36 0.00471817 -2.75817)
(-451.639 0.00568368 -1.64787)
(-1921.02 0.000838041 0.406336)
(-756.098 0.00182895 2.43672)
(213.213 0.00279531 -4.45585)
(1577.9 0.00374175 -2.13608)
(1360.31 0.0047719 -4.48087)
(-484.241 0.00574861 -1.93415)
(-1916.24 0.000845924 0.696219)
(-726.166 0.00184781 4.07542)
(222.094 0.00282756 -0.0377539)
(1569.86 0.00378515 0.405174)
(1348.67 0.00482298 -2.26316)
(-500.284 0.00581096 -1.31314)
(-1917.59 0.000854492 0.756823)
(-722.131 0.00186578 4.78643)
(223.515 0.0028532 2.46622)
(1572.5 0.00382081 1.74124)
(1350.49 0.00487038 -1.43667)
(-511.232 0.00587131 -1.35643)
(-1916.05 0.000863537 0.825318)
(-711.509 0.00188614 4.58598)
(228.618 0.00288479 2.02457)
(1576.84 0.00386042 1.28026)
(1349.78 0.00492016 -1.79696)
(-526.566 0.00593226 -1.58908)
(-1917.24 0.000872014 0.871412)
(-704.5 0.00190502 4.72047)
(232.158 0.00291413 2.2748)
(1582.45 0.00390045 1.2326)
(1349.33 0.00497072 -1.88903)
(-542.924 0.00599344 -1.66954)
(-1918.17 0.000880773 0.886072)
(-696.909 0.00192443 4.68702)
(237.07 0.00294409 2.2068)
(1589.16 0.00394098 1.07615)
(1349.36 0.00502177 -2.07288)
(-560.521 0.00605487 -1.76638)
(-1919.54 0.000889413 0.88662)
(-689.581 0.00194362 4.65355)
(241.961 0.00297384 2.12214)
(1596.31 0.00398165 0.938177)
(1349.65 0.00507304 -2.24481)
(-579.199 0.00611642 -1.853)
(-1920.8 0.000898184 0.861749)
(-681.799 0.00196298 4.55473)
(247.177 0.00300371 1.92561)
(1603.77 0.00402239 0.749885)
(1350.18 0.00512441 -2.44698)
(-598.949 0.00617802 -1.95163)
(-1921.89 0.000907073 0.804967)
(-673.554 0.00198248 4.38298)
(252.464 0.00303372 1.59804)
(1611.13 0.00406322 0.464333)
(1350.7 0.00517585 -2.71864)
(-619.989 0.00623966 -2.08446)
(-1922.28 0.000916315 0.674851)
(-664.16 0.00200245 4.02812)
(258.1 0.00306412 0.954634)
(1618.44 0.00410409 -0.011621)
(1350.93 0.0052273 -3.11314)
(-642.772 0.00630129 -2.26996)
(-1921.25 0.000926228 0.419685)
(-652.908 0.00202341 3.30071)
(263.806 0.00309559 -0.364267)
(1624.3 0.00414531 -0.989354)
(1349.83 0.00527889 -3.84795)
(-668.492 0.00636297 -2.6034)
(-1916.72 0.000937542 -0.0562442)
(-636.549 0.00204666 1.85501)
(271.321 0.00312964 -3.01211)
(1628.39 0.00418699 -2.82583)
(1345.92 0.00533057 -5.1614)
(-699.008 0.00642466 -3.18026)
(-1906.42 0.000951143 -0.807265)
(-612.076 0.00207409 -0.833839)
(281.017 0.00316964 -8.0942)
(1626.06 0.00423085 -6.59038)
(1334.77 0.00538291 -7.79023)
(-739.242 0.0064865 -4.27702)
(-1883.77 0.000968508 -1.82079)
(-566.479 0.0021094 -5.32847)
(301.962 0.00322113 -17.2256)
(1619.13 0.00427838 -13.0572)
(1311.1 0.00543687 -12.0151)
(-794.241 0.00654889 -5.83758)
(-1847.63 0.000989039 -2.41908)
(-491.747 0.00215419 -10.9008)
(340.293 0.00329425 -29.6315)
(1586.8 0.00433634 -21.8197)
(1257.63 0.00549422 -17.5479)
(-872.378 0.0066121 -7.73419)
(-1797.77 0.00100947 -1.8611)
(-373.073 0.00220257 -13.4539)
(417.053 0.00338125 -35.1208)
(1527.12 0.00441404 -29.0094)
(1180.64 0.00556181 -23.0618)
(-976.944 0.00667822 -9.92771)
(-1756.33 0.00102441 -0.572851)
(-256.002 0.00223792 -11.0557)
(507.555 0.00344488 -28.8867)
(1490.1 0.00449263 -30.3836)
(1113.58 0.00563503 -26.4534)
(-1108.88 0.00674724 -11.9043)
(-1736.68 0.00103541 0.736004)
(-164.892 0.00226172 -8.155)
(580.22 0.0034851 -22.2028)
(1503.4 0.00455551 -29.2473)
(1070.18 0.00570322 -28.5009)
(-1265.94 0.00681605 -13.4785)
(-1729.93 0.00104602 1.88533)
(-68.4147 0.00228465 -6.59381)
(641.958 0.0035236 -19.4829)
(1542.97 0.00461081 -28.3834)
(1037.8 0.00576699 -29.731)
(-1439.19 0.00688372 -14.5174)
(-1735.77 0.00105551 2.81343)
(30.7672 0.00230512 -5.30342)
(695.963 0.00355824 -17.7256)
(1594.78 0.00466008 -27.4838)
(1016.29 0.005826 -30.2432)
(-1615.72 0.00694918 -15.2883)
(-1750.99 0.00106511 3.63424)
(132.905 0.00232542 -4.22932)
(745.451 0.00359162 -16.3145)
(1651.9 0.00470555 -26.5334)
(1000.84 0.00588163 -30.4489)
(-1800.79 0.00701283 -15.9957)
(-1773.93 0.00107461 4.22467)
(238.752 0.00234552 -3.68463)
(794.408 0.00362457 -16.4373)
(1718.53 0.00474916 -27.091)
(1000.31 0.0059354 -31.9625)
(-1981.09 0.00707516 -17.4522)
(-1806.67 0.00108424 5.44454)
(346.838 0.00236579 -1.98996)
(836.931 0.00365779 -13.2147)
(1782.91 0.00479236 -23.9906)
(991.198 0.0059888 -29.7716)
(-2201.36 0.0071375 -16.7455)
(-1857.64 0.00109397 7.55341)
(451.739 0.0023862 1.32858)
(864.957 0.00369129 -4.68206)
(1850.44 0.00483533 -14.7682)
(1007.74 0.00604147 -18.6577)
(-2367.79 0.00719821 -8.79523)
(-1924.82 0.00110383 8.41586)
(554.788 0.00240681 2.10547)
(875.072 0.00372515 -3.63888)
(1908.66 0.00487845 -13.4498)
(976.727 0.00609489 -14.7425)
(-2375.44 0.00726338 -4.37683)
(-1993.85 0.00111382 8.12238)
(669.117 0.0024276 0.629636)
(891.17 0.00375938 -9.91024)
(1970.19 0.00492187 -20.1526)
(914.784 0.00614909 -21.4539)
(-2449.33 0.00733073 -7.79513)
(-2060.5 0.00112395 8.30814)
(799.135 0.00244859 0.0118069)
(922.68 0.00379406 -13.903)
(2042.33 0.00496559 -24.4293)
(841.495 0.00620383 -25.9793)
(-2554.24 0.00739887 -9.9495)
(-2131.04 0.00113421 9.28096)
(941.327 0.0024698 0.689638)
(964.667 0.00382924 -14.7764)
(2123.88 0.00500963 -26.1377)
(761.516 0.00625895 -28.2127)
(-2672.13 0.00746728 -10.8409)
(-2214.64 0.00114455 11.5545)
(1091.27 0.00249118 3.35973)
(1015.59 0.00386492 -11.5433)
(2216.61 0.00505395 -25.4515)
(679.401 0.00631435 -28.6031)
(-2793.95 0.00753576 -10.8852)
(-2326.48 0.00115482 16.5983)
(1242.87 0.00251266 10.0315)
(1081.49 0.00390107 -0.777351)
(2328.17 0.00509855 -21.1375)
(603.411 0.00637002 -26.2701)
(-2909.46 0.00760426 -9.82767)
(-2523.87 0.00116454 18.5545)
(1374.74 0.002534 14.415)
(1161.08 0.00393761 11.8679)
(2461.87 0.0051434 -15.2744)
(540.382 0.00642594 -22.7142)
(-3010.02 0.00767277 -8.33861)
(-2670.91 0.00117234 13.855)
(1438.27 0.00255472 13.0185)
(1237.87 0.00397434 22.2843)
(2627.67 0.00518857 -7.71926)
(496.929 0.00648213 -16.6602)
(-3089.32 0.00774129 -5.95663)
(-2735.81 0.00118004 7.61558)
(1415.44 0.00257402 10.1611)
(1314.55 0.00400644 31.3358)
(2806.29 0.00523346 5.1407)
(508.448 0.00653862 -0.907255)
(-3108.49 0.00780987 0.61588)
(-2786.08 0.00118724 2.89916)
(1253.21 0.00259128 5.49249)
(1270.27 0.00402782 26.0233)
(2803.36 0.00527565 10.638)
(528.73 0.00659463 9.92569)
(-3065.89 0.00787826 5.47422)
(-2768.81 0.00119486 1.46696)
(1175.29 0.00260931 2.64002)
(1269.77 0.00404983 17.6765)
(2774.69 0.00531731 8.27188)
(556.347 0.00665051 9.88229)
(-2993.2 0.00794652 5.74474)
(-2759.01 0.00120243 1.30617)
(1087.9 0.00262735 2.64282)
(1263.23 0.00407247 16.5649)
(2737.5 0.00535901 8.04854)
(579.672 0.0067065 9.93591)
(-2918.39 0.00801477 5.73865)
(-2742.93 0.00121012 1.36103)
(1011.99 0.00264565 2.82703)
(1262.16 0.00409596 15.7511)
(2704.28 0.00540102 7.7059)
(602.209 0.00676278 9.51831)
(-2844.59 0.00808307 5.48007)
(-2731.33 0.00121775 1.59286)
(935.718 0.00266399 3.48786)
(1260.83 0.00412021 16.1691)
(2675.89 0.00544346 8.0743)
(623.714 0.00681954 9.58235)
(-2773.08 0.00815156 5.35811)
(-2722.26 0.00122493 1.7512)
(858.904 0.00268186 4.1241)
(1258.94 0.00414544 16.8254)
(2652.21 0.00548675 8.8368)
(646.33 0.00687708 9.9599)
(-2702.4 0.0082204 5.2468)
(-2715.76 0.00123146 1.97446)
(780.151 0.00269807 4.83454)
(1249.45 0.00416935 17.228)
(2632.84 0.00553071 9.31028)
(673.002 0.00693551 9.79952)
(-2633.53 0.0082895 4.80084)
(-2712.74 0.00123666 2.38481)
(707.488 0.00271026 5.47914)
(1237.38 0.00418422 16.5938)
(2623.07 0.00556582 8.75114)
(705.918 0.00698687 8.39592)
(-2572.03 0.00835521 3.9624)
(-2716.86 0.00124208 2.69416)
(645.313 0.00272306 5.57341)
(1232.42 0.00419751 14.647)
(2616.51 0.00559449 7.14797)
(738.904 0.00703167 6.25085)
(-2523.78 0.00841793 3.06827)
(-2723.38 0.00124917 2.73328)
(592.301 0.00274016 5.42803)
(1238.62 0.00421913 12.7785)
(2608.83 0.00562911 5.503)
(765.288 0.00708051 4.39406)
(-2488.33 0.00848256 2.3791)
(-2729.83 0.00125705 2.72869)
(540.686 0.00275889 5.64964)
(1251.89 0.00424537 12.2575)
(2603.86 0.00566931 4.85365)
(786.685 0.00713412 3.50871)
(-2459.7 0.00854924 2.02368)
(-2737.53 0.00126517 2.80617)
(486.951 0.00277805 6.1527)
(1268.09 0.00427318 12.4917)
(2602.55 0.00571197 4.91609)
(807.584 0.00718984 3.26282)
(-2433.45 0.00861657 1.86982)
(-2746.8 0.00127322 2.89707)
(431.356 0.00279709 6.67555)
(1285.58 0.00430111 12.7664)
(2604.33 0.00575518 5.11751)
(829.448 0.00724605 3.13896)
(-2409.07 0.008684 1.74887)
(-2757.46 0.00128124 2.96293)
(374.472 0.00281607 7.13692)
(1304.2 0.00432903 12.9118)
(2608.61 0.00579849 5.26417)
(852.441 0.00730237 2.96419)
(-2386.56 0.00875141 1.61638)
(-2769.1 0.00128915 2.98779)
(316.589 0.00283485 7.52423)
(1324.33 0.00435682 12.8935)
(2614.97 0.00584169 5.27284)
(876.676 0.00735864 2.64889)
(-2366.33 0.00881881 1.4375)
(-2780.98 0.00129691 2.9475)
(257.895 0.00285341 7.81876)
(1346.89 0.00438453 12.7243)
(2623.41 0.00588487 5.09976)
(901.853 0.00741507 2.1702)
(-2349.08 0.00888645 1.21741)
(-2792.05 0.00130441 2.80561)
(197.881 0.00287157 7.99276)
(1372.54 0.0044122 12.5489)
(2634.51 0.00592844 4.94975)
(926.522 0.00747241 1.84784)
(-2334.74 0.00895484 1.09719)
(-2801.33 0.00131159 2.55037)
(134.968 0.00288927 7.98211)
(1398.48 0.00443996 12.6068)
(2647.99 0.00597329 5.44334)
(947.338 0.007532 2.56159)
(-2320.1 0.00902439 1.40531)
(-2809.06 0.0013188 2.36023)
(68.0013 0.00290687 7.9345)
(1415.05 0.00446756 13.1693)
(2658.75 0.00601914 7.25406)
(961.662 0.00759311 5.06689)
(-2297.1 0.00909363 2.35356)
(-2818.65 0.0013271 2.67308)
(-0.307685 0.00292566 8.55799)
(1413.1 0.00449423 14.4607)
(2659.09 0.00606206 10.0276)
(975.442 0.00764924 8.2726)
(-2258.04 0.00915831 3.41805)
(-2836.67 0.00133726 3.71538)
(-63.8125 0.00294675 10.5471)
(1400.85 0.00451985 16.1824)
(2653.02 0.00609709 11.8309)
(1005.09 0.00769232 8.95839)
(-2208.36 0.00921552 3.41592)
(-2868.33 0.00134814 5.01981)
(-120.811 0.00296868 13.4489)
(1403.09 0.00454469 17.4501)
(2661.06 0.00612497 10.8401)
(1058.37 0.00772475 5.06419)
(-2171.86 0.00926947 1.81053)
(-2912.78 0.00135771 5.79974)
(-178.453 0.00298886 15.7792)
(1437.88 0.00456951 17.7674)
(2702.24 0.00615448 7.76192)
(1118.83 0.00776242 -1.00891)
(-2170.37 0.00932955 -0.358932)
(-2963.09 0.00136556 5.67749)
(-245.721 0.00300772 16.3922)
(1498.59 0.00459786 17.461)
(2772.46 0.00619711 5.41149)
(1161.46 0.007821 -4.42949)
(-2197.89 0.00940118 -1.43712)
(-3009.88 0.00137281 4.9034)
(-324.687 0.00302736 15.4864)
(1561.17 0.00463264 17.1066)
(2846.93 0.00625572 5.71031)
(1180.21 0.00789965 -3.05464)
(-2225.85 0.0094802 -0.85142)
(-3046.62 0.00138045 4.03424)
(-410.694 0.00304812 14.196)
(1606.83 0.0046707 16.947)
(2904.22 0.00631988 7.92735)
(1191.16 0.00798214 0.975478)
(-2231.96 0.00955779 0.533792)
(-3073.28 0.00138877 3.46069)
(-498.22 0.00306909 13.3974)
(1634.82 0.00470656 16.7668)
(2940.85 0.00637724 9.96564)
(1211.25 0.00805399 4.23007)
(-2216.45 0.00962923 1.55854)
(-3094.45 0.00139758 3.26952)
(-584.667 0.00308972 13.3591)
(1655.25 0.0047382 16.5348)
(2965.06 0.00642473 10.7644)
(1242.79 0.0081136 5.23129)
(-2193.29 0.00969607 1.79292)
(-3115.09 0.00140657 3.30757)
(-670.442 0.00311017 13.8381)
(1678.25 0.00476738 16.3709)
(2988.87 0.00646725 10.6904)
(1280.77 0.00816814 4.77672)
(-2172.95 0.00976204 1.54969)
(-3138.11 0.00141579 3.55475)
(-758.172 0.00313098 14.9991)
(1705.08 0.00479643 16.9551)
(3015.06 0.00651003 10.855)
(1317.27 0.00822389 4.19351)
(-2158.41 0.00982911 1.25015)
(-3165.91 0.001425 3.89258)
(-850.763 0.00315211 16.8762)
(1738.8 0.00482694 18.5946)
(3052.37 0.00655567 11.9258)
(1355.99 0.00828314 4.24622)
(-2145.02 0.00989715 1.19808)
(-3195.37 0.00143314 3.83752)
(-951.481 0.0031714 18.098)
(1777.43 0.00485953 20.2534)
(3107.42 0.00660679 14.8661)
(1397.48 0.00834763 7.47912)
(-2124.76 0.00996407 2.42066)
(-3226.96 0.00143875 4.23979)
(-1068.62 0.00318411 20.292)
(1789.54 0.00488451 23.4239)
(3135.44 0.00664641 21.294)
(1436.24 0.00839678 14.5193)
(-2084.98 0.0100211 4.8159)
(-3276.67 0.0014436 6.13238)
(-1197.66 0.00319382 26.0631)
(1780.34 0.00489623 29.0557)
(3141.79 0.00665812 27.4081)
(1514.76 0.00841243 17.2432)
(-2020.53 0.0100689 5.35595)
(-3353.62 0.00145165 7.96694)
(-1329.89 0.00321145 31.5106)
(1793.11 0.00491228 33.189)
(3206.91 0.00667632 27.4572)
(1625.58 0.00844081 10.6272)
(-1972.81 0.0101293 2.63356)
(-3443.15 0.00146339 7.93949)
(-1469.28 0.00323865 31.8867)
(1825.53 0.00494748 31.2824)
(3346.85 0.00673247 18.2004)
(1714.98 0.00851663 -5.91732)