/*--------------------------------*- C++ -*----------------------------------*\
| =========                 |                                                 |
| \\      /  F ield         | OpenFOAM: The Open Source CFD Toolbox           |
|  \\    /   O peration     | Version:  2206                                  |
|   \\  /    A nd           | Website:  www.openfoam.com                      |
|    \\/     M anipulation  |                                                 |
\*---------------------------------------------------------------------------*/
FoamFile
{
    version     2.0;
    format      ascii;
    arch        "LSB;label=32;scalar=64";
    class       volScalarField;
    location    "540";
    object      p;
}
// * * * * * * * * * * * * * * * * * * * * * * * * * * * * * * * * * * * * * //

dimensions      [0 2 -2 0 0 0 0];

internalField   nonuniform List<scalar> 
100000
(
1.04442e-10
2.00183e-09
-5.49247e-10
5.21156e-09
1.26954e-08
2.33211e-08
2.93113e-08
4.41356e-08
5.66388e-08
7.66147e-08
9.46214e-08
1.12233e-07
1.35049e-07
1.58459e-07
1.86798e-07
2.15319e-07
2.41385e-07
2.74775e-07
3.06449e-07
3.45534e-07
3.82033e-07
4.19155e-07
4.60109e-07
5.03358e-07
5.49406e-07
5.9878e-07
6.49383e-07
6.96829e-07
7.51945e-07
8.05348e-07
8.65806e-07
9.24391e-07
9.8239e-07
1.04594e-06
1.10952e-06
1.17871e-06
1.24721e-06
1.31416e-06
1.38746e-06
1.46011e-06
1.53894e-06
1.6166e-06
1.69311e-06
1.77563e-06
1.85779e-06
1.9459e-06
2.03302e-06
2.11883e-06
2.2108e-06
2.30227e-06
2.39982e-06
2.49624e-06
2.5915e-06
2.69278e-06
2.79369e-06
2.90053e-06
3.00642e-06
3.11094e-06
3.22172e-06
3.33186e-06
3.44825e-06
3.56329e-06
3.67745e-06
3.7973e-06
3.91717e-06
4.0425e-06
4.16743e-06
4.29033e-06
4.4203e-06
4.54865e-06
4.68443e-06
4.81744e-06
4.95126e-06
5.08875e-06
5.22868e-06
5.37125e-06
5.51729e-06
5.66437e-06
5.80847e-06
5.96013e-06
6.11011e-06
6.26715e-06
6.42224e-06
6.57683e-06
6.73693e-06
6.89706e-06
7.06282e-06
7.22782e-06
7.39134e-06
7.56117e-06
7.73036e-06
7.90575e-06
8.07991e-06
8.25296e-06
8.43203e-06
8.61069e-06
8.79537e-06
8.97895e-06
9.16135e-06
9.34979e-06
9.53783e-06
9.73185e-06
9.92485e-06
1.01165e-05
1.03145e-05
1.05117e-05
1.07153e-05
1.09174e-05
1.11188e-05
1.13257e-05
1.15327e-05
1.17452e-05
1.19573e-05
1.21673e-05
1.23844e-05
1.25999e-05
1.28228e-05
1.3043e-05
1.32639e-05
1.34885e-05
1.37156e-05
1.39453e-05
1.41785e-05
1.44127e-05
1.46439e-05
1.48827e-05
1.51198e-05
1.5364e-05
1.56062e-05
1.5848e-05
1.60952e-05
1.63424e-05
1.65953e-05
1.68475e-05
1.70981e-05
1.73551e-05
1.76114e-05
1.78739e-05
1.81352e-05
1.83954e-05
1.86616e-05
1.89274e-05
1.91992e-05
1.94699e-05
1.97394e-05
2.0015e-05
2.02901e-05
2.05713e-05
2.08513e-05
2.11303e-05
2.14152e-05
2.16997e-05
2.19902e-05
2.22797e-05
2.25679e-05
2.28623e-05
2.31561e-05
2.34561e-05
2.37548e-05
2.40526e-05
2.43561e-05
2.46596e-05
2.49685e-05
2.52771e-05
2.55836e-05
2.58972e-05
2.62092e-05
2.65286e-05
2.68452e-05
2.71627e-05
2.74838e-05
2.78074e-05
2.81335e-05
2.84632e-05
2.87939e-05
2.91216e-05
2.94569e-05
2.97905e-05
3.01312e-05
3.04699e-05
3.08081e-05
3.11518e-05
3.14955e-05
3.18449e-05
3.21935e-05
3.25407e-05
3.28941e-05
3.32469e-05
3.36059e-05
3.39637e-05
3.43204e-05
3.46831e-05
3.50453e-05
3.54136e-05
3.57808e-05
3.61468e-05
3.65189e-05
3.68905e-05
3.72682e-05
3.76448e-05
3.80201e-05
3.84016e-05
3.87825e-05
3.91697e-05
3.95554e-05
3.99403e-05
4.03309e-05
4.07216e-05
4.11177e-05
4.15133e-05
4.1907e-05
4.23077e-05
4.27068e-05
4.31133e-05
4.3517e-05
4.39216e-05
4.43298e-05
4.47405e-05
4.51538e-05
4.55706e-05
4.59884e-05
4.64033e-05
4.68257e-05
4.72464e-05
4.76742e-05
4.81e-05
4.85253e-05
4.89562e-05
4.9387e-05
4.98235e-05
5.02592e-05
5.06935e-05
5.11341e-05
5.1574e-05
5.20201e-05
5.2465e-05
5.29088e-05
5.33586e-05
5.3808e-05
5.42634e-05
5.47177e-05
5.51708e-05
5.563e-05
5.60887e-05
5.65536e-05
5.70172e-05
5.74797e-05
5.79482e-05
5.84164e-05
5.88905e-05
5.93636e-05
5.98354e-05
6.03134e-05
6.07908e-05
6.12744e-05
6.17567e-05
6.22381e-05
6.27251e-05
6.32122e-05
6.37048e-05
6.4197e-05
6.46871e-05
6.51843e-05
6.56799e-05
6.61829e-05
6.66831e-05
6.71842e-05
6.76889e-05
6.81961e-05
6.87058e-05
6.92191e-05
6.97334e-05
7.02447e-05
7.07636e-05
7.12808e-05
7.18051e-05
7.23274e-05
7.28492e-05
7.33765e-05
7.39038e-05
7.44368e-05
7.4969e-05
7.54998e-05
7.60368e-05
7.65732e-05
7.71158e-05
7.76572e-05
7.81975e-05
7.87438e-05
7.92896e-05
7.98415e-05
8.03923e-05
8.09419e-05
8.14976e-05
8.20528e-05
8.26141e-05
8.31743e-05
8.37332e-05
8.42983e-05
8.48628e-05
8.54336e-05
8.60029e-05
8.65714e-05
8.71456e-05
8.77199e-05
8.82996e-05
8.88788e-05
8.94561e-05
9.00404e-05
9.06231e-05
9.12132e-05
9.18005e-05
9.23887e-05
9.29805e-05
9.35748e-05
9.41717e-05
9.47721e-05
9.53735e-05
9.59719e-05
9.65779e-05
9.71823e-05
9.77936e-05
9.8403e-05
9.9012e-05
9.96264e-05
0.000100241
0.000100861
0.00010148
0.000102098
0.000102722
0.000103346
0.000103976
0.000104604
0.000105231
0.000105865
0.000106498
0.000107137
0.000107775
0.000108411
0.000109054
0.000109697
0.000110345
0.000110992
0.000111638
0.00011229
0.000112942
0.0001136
0.000114257
0.000114912
0.000115574
0.000116235
0.000116902
0.000117568
0.000118233
0.000118903
0.000119574
0.00012025
0.000120926
0.0001216
0.00012228
0.00012296
0.000123646
0.00012433
0.000125015
0.000125703
0.000126394
0.000127087
0.000127784
0.000128482
0.000129177
0.000129879
0.00013058
0.000131288
0.000131994
0.000132699
0.00013341
0.000134121
0.000134838
0.000135554
0.000136268
0.000136989
0.000137709
0.000138435
0.00013916
0.000139884
0.000140613
0.000141343
0.000142078
0.000142813
0.000143546
0.000144285
0.000145024
0.000145769
0.000146513
0.000147255
0.000148004
0.000148752
0.000149506
0.000150259
0.000151011
0.000151769
0.000152527
0.00015329
0.000154053
0.000154814
0.000155582
0.000156348
0.000157122
0.000157893
0.000158665
0.00015944
0.000160218
0.000160998
0.000161782
0.000162567
0.00016335
0.000164139
0.000164927
0.000165722
0.000166515
0.000167308
0.000168106
0.000168904
0.000169707
0.00017051
0.000171312
0.000172119
0.000172927
0.00017374
0.000174552
0.000175363
0.00017618
0.000176997
0.000177819
0.000178641
0.000179461
0.000180287
0.000181113
0.000181945
0.000182776
0.000183606
0.000184442
0.000185277
0.000186118
0.000186958
0.000187797
0.000188643
0.000189487
0.000190338
0.000191187
0.000192036
0.00019289
0.000193745
0.000194604
0.000195464
0.000196321
0.000197185
0.000198048
0.000198918
0.000199786
0.000200654
0.000201526
0.0002024
0.000203277
0.000204158
0.000205039
0.000205918
0.000206804
0.000207688
0.00020858
0.000209469
0.000210358
0.000211253
0.000212147
0.000213047
0.000213947
0.000214845
0.000215749
0.000216653
0.000217562
0.000218471
0.000219378
0.000220292
0.000221205
0.000222124
0.000223042
0.000223959
0.000224882
0.000225804
0.000226733
0.00022766
0.000228586
0.000229518
0.00023045
0.000231388
0.000232325
0.00023326
0.000234202
0.000235143
0.00023609
0.000237036
0.000237981
0.000238932
0.000239882
0.00024084
0.000241794
0.000242749
0.000243708
0.00024467
0.000245634
0.000246602
0.00024757
0.000248536
0.000249509
0.00025048
0.000251459
0.000252436
0.000253412
0.000254393
0.000255375
0.000256362
0.000257349
0.000258334
0.000259325
0.000260316
0.000261313
0.000262309
0.000263303
0.000264304
0.000265304
0.00026631
0.000267315
0.000268319
0.000269329
0.000270339
0.000271354
0.000272369
0.000273382
0.000274401
0.00027542
0.000276445
0.000277469
0.000278492
0.00027952
0.000280548
0.000281583
0.000282616
0.000283648
0.000284686
0.000285724
0.000286767
0.00028781
0.000288851
0.000289899
0.000290945
0.000291999
0.00029305
0.000294102
0.000295158
0.000296216
0.000297276
0.00029834
0.000299405
0.000300467
0.000301537
0.000302605
0.00030368
0.000304753
0.000305826
0.000306904
0.000307982
0.000309066
0.000310149
0.00031123
0.000312318
0.000313405
0.000314499
0.000315591
0.000316682
0.000317779
0.000318876
0.000319978
0.00032108
0.00032218
0.000323287
0.000324393
0.000325505
0.000326616
0.000327725
0.000328841
0.000329957
0.000331078
0.000332198
0.000333318
0.000334443
0.000335568
0.000336698
0.000337828
0.000338956
0.000340091
0.000341225
0.000342366
0.000343504
0.000344643
0.000345785
0.00034693
0.000348078
0.000349229
0.000350381
0.000351531
0.000352688
0.000353843
0.000355005
0.000356165
0.000357325
0.00035849
0.000359655
0.000360826
0.000361996
0.000363165
0.00036434
0.000365514
0.000366695
0.000367874
0.000369052
0.000370236
0.00037142
0.00037261
0.000373798
0.000374986
0.00037618
0.000377373
0.000378572
0.00037977
0.000380967
0.00038217
0.000383372
0.000384581
0.000385788
0.000386994
0.000388207
0.000389418
0.000390636
0.000391853
0.000393069
0.00039429
0.000395512
0.000396739
0.000397965
0.00039919
0.000400421
0.000401651
0.000402889
0.000404123
0.000405359
0.000406598
0.000407839
0.000409084
0.000410331
0.00041158
0.000412826
0.000414079
0.00041533
0.000416589
0.000417846
0.000419102
0.000420364
0.000421625
0.000422893
0.000424159
0.000425424
0.000426696
0.000427967
0.000429244
0.000430519
0.000431794
0.000433075
0.000434355
0.000435641
0.000436926
0.00043821
0.0004395
0.00044079
0.000442086
0.00044338
0.000444674
0.000445973
0.000447272
0.000448577
0.000449881
0.000451184
0.000452492
0.000453801
0.000455115
0.000456429
0.00045774
0.000459059
0.000460376
0.000461701
0.000463022
0.000464345
0.000465671
0.000467
0.000468331
0.000469666
0.000471001
0.000472334
0.000473675
0.000475013
0.000476359
0.000477703
0.000479046
0.000480395
0.000481744
0.000483098
0.000484452
0.000485804
0.000487163
0.000488521
0.000489885
0.000491248
0.000492609
0.000493977
0.000495345
0.000496718
0.00049809
0.000499461
0.000500839
0.000502215
0.000503598
0.00050498
0.00050636
0.000507747
0.000509133
0.000510525
0.000511916
0.000513306
0.000514702
0.000516097
0.000517499
0.000518899
0.000520298
0.000521703
0.000523108
0.000524519
0.000525929
0.000527337
0.000528752
0.000530166
0.000531587
0.000533005
0.000534424
0.000535847
0.000537272
0.0005387
0.000540131
0.000541563
0.000542992
0.000544429
0.000545864
0.000547307
0.000548747
0.000550187
0.000551632
0.000553077
0.000554528
0.000555979
0.000557427
0.000558882
0.000560337
0.000561797
0.000563257
0.000564715
0.000566179
0.000567643
0.000569113
0.000570582
0.000572049
0.000573523
0.000574996
0.000576475
0.000577953
0.00057943
0.000580913
0.000582396
0.000583885
0.000585372
0.000586858
0.000588351
0.000589843
0.00059134
0.000592838
0.000594333
0.000595835
0.000597336
0.000598844
0.000600349
0.000601855
0.000603365
0.000604877
0.000606392
0.000607911
0.00060943
0.000610946
0.00061247
0.000613993
0.000615522
0.000617049
0.000618576
0.000620109
0.000621641
0.000623179
0.000624716
0.000626252
0.000627794
0.000629336
0.000630884
0.00063243
0.000633975
0.000635527
0.000637078
0.000638635
0.000640191
0.000641745
0.000643306
0.000644866
0.000646433
0.000647998
0.000649562
0.000651132
0.000652702
0.000654278
0.000655852
0.000657426
0.000659005
0.000660584
0.000662169
0.000663753
0.000665336
0.000666925
0.000668513
0.000670108
0.000671701
0.000673293
0.000674892
0.000676489
0.000678093
0.000679695
0.000681298
0.000682904
0.000684513
0.000686124
0.000687739
0.000689355
0.000690968
0.000692588
0.000694207
0.000695833
0.000697457
0.00069908
0.000700709
0.000702338
0.000703972
0.000705606
0.000707239
0.000708877
0.000710515
0.000712159
0.000713802
0.000715444
0.000717092
0.000718739
0.000720393
0.000722045
0.000723696
0.000725354
0.00072701
0.000728673
0.000730335
0.000731995
0.000733662
0.000735328
0.000737001
0.000738671
0.000740342
0.000742017
0.000743693
0.000745374
0.000747055
0.000748734
0.00075042
0.000752104
0.000753796
0.000755485
0.000757174
0.000758868
0.000760564
0.000762262
0.000763964
0.000765667
0.000767367
0.000769075
0.000770781
0.000772493
0.000774204
0.000775915
0.000777631
0.000779347
0.000781069
0.00078279
0.000784509
0.000786235
0.00078796
0.000789691
0.000791421
0.00079315
0.000794885
0.00079662
0.00079836
0.0008001
0.000801838
0.000803582
0.000805326
0.000807076
0.000808825
0.000810573
0.000812326
0.00081408
0.000815839
0.000817597
0.000819354
0.000821117
0.00082288
0.000824649
0.000826416
0.000828183
0.000829955
0.000831727
0.000833505
0.000835282
0.000837057
0.00083884
0.00084062
0.000842409
0.000844194
0.00084598
0.00084777
0.000849562
0.000851357
0.000853156
0.000854955
0.000856752
0.000858556
0.000860358
0.000862168
0.000863975
0.000865782
0.000867595
0.000869407
0.000871225
0.000873043
0.000874858
0.000876681
0.000878502
0.00088033
0.000882157
0.000883982
0.000885813
0.000887644
0.000889482
0.000891317
0.000893152
0.000894993
0.000896833
0.00089868
0.000900525
0.000902369
0.00090422
0.000906069
0.000907925
0.00090978
0.000911633
0.000913493
0.000915352
0.000917217
0.000919081
0.000920944
0.000922813
0.000924681
0.000926556
0.000928429
0.000930302
0.000932179
0.000934059
0.000935941
0.000937826
0.000939713
0.000941596
0.000943488
0.000945377
0.000947274
0.000949168
0.000951062
0.000952962
0.000954861
0.000956767
0.000958671
0.000960574
0.000962483
0.000964392
0.000966307
0.000968221
0.000970133
0.000972052
0.00097397
0.000975894
0.000977817
0.000979739
0.000981667
0.000983594
0.000985528
0.00098746
0.000989392
0.000991329
0.000993266
0.000995209
0.000997151
0.000999091
0.00100104
0.00100298
0.00100494
0.00100689
0.00100884
0.00101079
0.00101275
0.00101471
0.00101667
0.00101863
0.0010206
0.00102256
0.00102453
0.0010265
0.00102847
0.00103044
0.00103242
0.0010344
0.00103638
0.00103836
0.00104034
0.00104233
0.00104432
0.00104631
0.0010483
0.00105029
0.00105229
0.00105428
0.00105629
0.00105829
0.00106029
0.00106229
0.0010643
0.00106631
0.00106832
0.00107033
0.00107234
0.00107436
0.00107638
0.0010784
0.00108042
0.00108244
0.00108447
0.00108649
0.00108852
0.00109055
0.00109259
0.00109462
0.00109666
0.0010987
0.00110073
0.00110278
0.00110482
0.00110687
0.00110892
0.00111096
0.00111302
0.00111507
0.00111713
0.00111918
0.00112124
0.0011233
0.00112536
0.00112743
0.0011295
0.00113157
0.00113363
0.00113571
0.00113778
0.00113986
0.00114194
0.00114402
0.0011461
0.00114818
0.00115027
0.00115236
0.00115445
0.00115654
0.00115863
0.00116073
0.00116283
0.00116492
0.00116703
0.00116913
0.00117124
0.00117334
0.00117545
0.00117756
0.00117967
0.00118179
0.0011839
0.00118602
0.00118814
0.00119026
0.00119239
0.00119451
0.00119664
0.00119877
0.0012009
0.00120303
0.00120517
0.0012073
0.00120944
0.00121158
0.00121372
0.00121587
0.00121801
0.00122016
0.00122231
0.00122446
0.00122662
0.00122877
0.00123093
0.00123309
0.00123525
0.00123742
0.00123958
0.00124175
0.00124392
0.00124609
0.00124826
0.00125044
0.00125261
0.00125479
0.00125697
0.00125916
0.00126134
0.00126352
0.00126571
0.0012679
0.0012701
0.00127229
0.00127448
0.00127668
0.00127888
0.00128108
0.00128329
0.00128549
0.0012877
0.00128991
0.00129212
0.00129433
0.00129654
0.00129876
0.00130098
0.0013032
0.00130542
0.00130764
0.00130987
0.0013121
0.00131433
0.00131656
0.00131879
0.00132103
0.00132326
0.0013255
0.00132774
0.00132998
0.00133223
0.00133447
0.00133672
0.00133898
0.00134123
0.00134348
0.00134574
0.001348
0.00135026
0.00135252
0.00135478
0.00135705
0.00135932
0.00136159
0.00136386
0.00136613
0.00136841
0.00137068
0.00137296
0.00137525
0.00137753
0.00137981
0.0013821
0.00138439
0.00138668
0.00138897
0.00139126
0.00139356
0.00139586
0.00139816
0.00140046
0.00140276
0.00140506
0.00140737
0.00140968
0.00141199
0.0014143
0.00141662
0.00141894
0.00142126
0.00142357
0.0014259
0.00142822
0.00143055
0.00143288
0.0014352
0.00143754
0.00143987
0.00144221
0.00144454
0.00144688
0.00144922
0.00145156
0.00145391
0.00145626
0.00145861
0.00146095
0.00146331
0.00146566
0.00146802
0.00147038
0.00147274
0.0014751
0.00147747
0.00147983
0.0014822
0.00148457
0.00148694
0.00148931
0.00149169
0.00149407
0.00149645
0.00149883
0.00150121
0.0015036
0.00150599
0.00150837
0.00151076
0.00151315
0.00151555
0.00151795
0.00152034
0.00152274
0.00152514
0.00152755
0.00152996
0.00153236
0.00153477
0.00153718
0.0015396
0.00154201
0.00154442
0.00154684
0.00154926
0.00155169
0.00155411
0.00155654
0.00155896
0.00156139
0.00156383
0.00156626
0.0015687
0.00157114
0.00157358
0.00157602
0.00157846
0.00158091
0.00158336
0.00158581
0.00158826
0.00159071
0.00159317
0.00159562
0.00159808
0.00160054
0.00160301
0.00160547
0.00160793
0.0016104
0.00161287
0.00161535
0.00161782
0.00162029
0.00162277
0.00162525
0.00162774
0.00163022
0.0016327
0.00163519
0.00163768
0.00164017
0.00164266
0.00164515
0.00164765
0.00165015
0.00165265
0.00165515
0.00165765
0.00166016
0.00166267
0.00166518
0.00166769
0.0016702
0.00167272
0.00167523
0.00167776
0.00168027
0.0016828
0.00168532
0.00168785
0.00169038
0.00169291
0.00169544
0.00169797
0.00170051
0.00170305
0.00170559
0.00170813
0.00171068
0.00171322
0.00171577
0.00171832
0.00172087
0.00172342
0.00172598
0.00172854
0.0017311
0.00173366
0.00173622
0.00173878
0.00174135
0.00174392
0.00174649
0.00174906
0.00175164
0.00175421
0.00175679
0.00175937
0.00176195
0.00176453
0.00176712
0.00176971
0.0017723
0.00177489
0.00177748
0.00178007
0.00178267
0.00178527
0.00178787
0.00179047
0.00179307
0.00179568
0.00179829
0.0018009
0.00180351
0.00180612
0.00180874
0.00181136
0.00181398
0.0018166
0.00181922
0.00182185
0.00182448
0.00182711
0.00182974
0.00183237
0.001835
0.00183764
0.00184028
0.00184292
0.00184556
0.00184821
0.00185086
0.0018535
0.00185615
0.0018588
0.00186146
0.00186412
0.00186677
0.00186943
0.00187209
0.00187475
0.00187742
0.00188009
0.00188275
0.00188543
0.0018881
0.00189077
0.00189345
0.00189612
0.00189881
0.00190149
0.00190417
0.00190686
0.00190954
0.00191223
0.00191492
0.00191762
0.00192031
0.00192301
0.00192571
0.00192841
0.00193111
0.00193382
0.00193652
0.00193923
0.00194194
0.00194465
0.00194737
0.00195009
0.0019528
0.00195552
0.00195824
0.00196097
0.00196369
0.00196642
0.00196915
0.00197188
0.00197462
0.00197735
0.00198009
0.00198283
0.00198557
0.00198831
0.00199106
0.0019938
0.00199655
0.0019993
0.00200205
0.00200481
0.00200756
0.00201032
0.00201308
0.00201584
0.0020186
0.00202137
0.00202413
0.0020269
0.00202968
0.00203245
0.00203522
0.002038
0.00204077
0.00204356
0.00204634
0.00204912
0.00205191
0.00205469
0.00205749
0.00206028
0.00206307
0.00206586
0.00206866
0.00207146
0.00207426
0.00207707
0.00207987
0.00208268
0.00208549
0.0020883
0.00209111
0.00209393
0.00209674
0.00209956
0.00210238
0.00210521
0.00210803
0.00211086
0.00211368
0.00211652
0.00211935
0.00212218
0.00212501
0.00212785
0.00213069
0.00213353
0.00213637
0.00213922
0.00214206
0.00214492
0.00214777
0.00215062
0.00215347
0.00215633
0.00215919
0.00216205
0.0021649
0.00216777
0.00217063
0.0021735
0.00217637
0.00217924
0.00218211
0.00218499
0.00218787
0.00219075
0.00219362
0.00219651
0.00219939
0.00220228
0.00220517
0.00220805
0.00221095
0.00221384
0.00221674
0.00221964
0.00222254
0.00222543
0.00222834
0.00223124
0.00223416
0.00223706
0.00223997
0.00224289
0.0022458
0.00224872
0.00225164
0.00225456
0.00225748
0.0022604
0.00226333
0.00226626
0.00226919
0.00227212
0.00227505
0.00227799
0.00228093
0.00228387
0.00228681
0.00228975
0.0022927
0.00229565
0.00229859
0.00230154
0.00230449
0.00230745
0.00231041
0.00231336
0.00231632
0.00231928
0.00232225
0.00232522
0.00232818
0.00233115
0.00233412
0.0023371
0.00234007
0.00234305
0.00234603
0.00234901
0.00235199
0.00235498
0.00235796
0.00236095
0.00236394
0.00236693
0.00236993
0.00237293
0.00237592
0.00237892
0.00238192
0.00238493
0.00238794
0.00239094
0.00239395
0.00239696
0.00239998
0.00240299
0.00240601
0.00240903
0.00241205
0.00241507
0.0024181
0.00242112
0.00242415
0.00242718
0.00243021
0.00243325
0.00243628
0.00243932
0.00244236
0.0024454
0.00244845
0.00245149
0.00245454
0.00245758
0.00246064
0.00246369
0.00246674
0.0024698
0.00247286
0.00247592
0.00247898
0.00248204
0.00248511
0.00248818
0.00249125
0.00249432
0.00249739
0.00250047
0.00250354
0.00250662
0.00250971
0.00251279
0.00251587
0.00251896
0.00252205
0.00252515
0.00252824
0.00253133
0.00253443
0.00253753
0.00254063
0.00254373
0.00254683
0.00254994
0.00255305
0.00255616
0.00255927
0.00256238
0.0025655
0.00256861
0.00257174
0.00257486
0.00257798
0.0025811
0.00258423
0.00258736
0.00259049
0.00259362
0.00259676
0.00259989
0.00260303
0.00260617
0.00260931
0.00261245
0.0026156
0.00261875
0.0026219
0.00262505
0.0026282
0.00263135
0.00263451
0.00263767
0.00264083
0.00264399
0.00264716
0.00265033
0.00265349
0.00265666
0.00265983
0.00266301
0.00266618
0.00266936
0.00267254
0.00267572
0.00267891
0.00268209
0.00268528
0.00268847
0.00269166
0.00269485
0.00269805
0.00270125
0.00270445
0.00270764
0.00271085
0.00271405
0.00271726
0.00272047
0.00272368
0.00272689
0.0027301
0.00273332
0.00273654
0.00273975
0.00274298
0.0027462
0.00274943
0.00275265
0.00275588
0.00275911
0.00276234
0.00276558
0.00276882
0.00277205
0.00277529
0.00277853
0.00278178
0.00278503
0.00278827
0.00279152
0.00279477
0.00279803
0.00280128
0.00280454
0.0028078
0.00281106
0.00281432
0.00281759
0.00282086
0.00282412
0.00282739
0.00283067
0.00283394
0.00283722
0.0028405
0.00284378
0.00284706
0.00285034
0.00285363
0.00285692
0.00286021
0.0028635
0.00286679
0.00287009
0.00287338
0.00287668
0.00287998
0.00288329
0.00288659
0.0028899
0.00289321
0.00289652
0.00289983
0.00290314
0.00290646
0.00290978
0.0029131
0.00291642
0.00291974
0.00292307
0.00292639
0.00292972
0.00293306
0.00293639
0.00293972
0.00294306
0.00294639
0.00294974
0.00295308
0.00295642
0.00295977
0.00296311
0.00296647
0.00296982
0.00297317
0.00297652
0.00297988
0.00298324
0.00298661
0.00298997
0.00299333
0.0029967
0.00300007
0.00300344
0.00300682
0.00301019
0.00301357
0.00301694
0.00302033
0.00302371
0.00302709
0.00303048
0.00303387
0.00303726
0.00304065
0.00304404
0.00304744
0.00305083
0.00305424
0.00305764
0.00306104
0.00306444
0.00306785
0.00307126
0.00307467
0.00307808
0.0030815
0.00308491
0.00308833
0.00309175
0.00309517
0.0030986
0.00310202
0.00310545
0.00310888
0.00311231
0.00311574
0.00311918
0.00312262
0.00312605
0.00312949
0.00313293
0.00313638
0.00313983
0.00314328
0.00314673
0.00315018
0.00315363
0.00315709
0.00316055
0.00316401
0.00316747
0.00317093
0.0031744
0.00317787
0.00318134
0.00318481
0.00318828
0.00319176
0.00319524
0.00319872
0.00320219
0.00320568
0.00320916
0.00321265
0.00321614
0.00321962
0.00322312
0.00322661
0.00323011
0.00323361
0.0032371
0.00324061
0.00324411
0.00324762
0.00325112
0.00325463
0.00325814
0.00326165
0.00326517
0.00326869
0.0032722
0.00327572
0.00327924
0.00328277
0.0032863
0.00328982
0.00329335
0.00329688
0.00330042
0.00330395
0.00330749
0.00331103
0.00331457
0.00331811
0.00332166
0.00332521
0.00332875
0.0033323
0.00333586
0.00333941
0.00334297
0.00334653
0.00335009
0.00335365
0.00335722
0.00336078
0.00336435
0.00336792
0.00337149
0.00337506
0.00337864
0.00338221
0.00338579
0.00338937
0.00339296
0.00339655
0.00340013
0.00340372
0.00340731
0.0034109
0.0034145
0.00341809
0.00342169
0.00342529
0.00342889
0.0034325
0.0034361
0.00343971
0.00344331
0.00344693
0.00345054
0.00345415
0.00345777
0.00346139
0.00346501
0.00346863
0.00347226
0.00347588
0.00347951
0.00348314
0.00348677
0.00349041
0.00349404
0.00349768
0.00350132
0.00350497
0.00350861
0.00351225
0.0035159
0.00351955
0.0035232
0.00352686
0.00353051
0.00353417
0.00353782
0.00354149
0.00354515
0.00354881
0.00355248
0.00355615
0.00355982
0.00356349
0.00356716
0.00357084
0.00357451
0.0035782
0.00358188
0.00358556
0.00358924
0.00359293
0.00359662
0.00360031
0.003604
0.0036077
0.00361139
0.00361509
0.00361879
0.00362249
0.0036262
0.0036299
0.00363361
0.00363732
0.00364103
0.00364474
0.00364846
0.00365218
0.0036559
0.00365961
0.00366334
0.00366706
0.00367079
0.00367452
0.00367825
0.00368198
0.00368572
0.00368945
0.00369319
0.00369693
0.00370067
0.00370442
0.00370816
0.00371191
0.00371566
0.00371941
0.00372317
0.00372692
0.00373068
0.00373444
0.0037382
0.00374196
0.00374572
0.00374949
0.00375326
0.00375703
0.0037608
0.00376457
0.00376835
0.00377213
0.00377591
0.00377969
0.00378347
0.00378726
0.00379105
0.00379483
0.00379863
0.00380242
0.00380621
0.00381001
0.00381381
0.00381761
0.00382141
0.00382522
0.00382902
0.00383283
0.00383664
0.00384045
0.00384426
0.00384808
0.0038519
0.00385572
0.00385954
0.00386336
0.00386719
0.00387102
0.00387484
0.00387868
0.00388251
0.00388634
0.00389018
0.00389402
0.00389786
0.0039017
0.00390555
0.00390939
0.00391324
0.00391709
0.00392094
0.0039248
0.00392865
0.00393251
0.00393637
0.00394023
0.00394409
0.00394796
0.00395182
0.00395569
0.00395956
0.00396344
0.00396731
0.00397118
0.00397506
0.00397894
0.00398283
0.00398671
0.00399059
0.00399448
0.00399837
0.00400226
0.00400615
0.00401005
0.00401394
0.00401784
0.00402175
0.00402565
0.00402955
0.00403345
0.00403736
0.00404127
0.00404519
0.0040491
0.00405302
0.00405694
0.00406085
0.00406478
0.0040687
0.00407263
0.00407656
0.00408048
0.00408442
0.00408835
0.00409228
0.00409622
0.00410016
0.0041041
0.00410805
0.00411199
0.00411593
0.00411988
0.00412383
0.00412779
0.00413174
0.00413569
0.00413965
0.00414361
0.00414757
0.00415153
0.0041555
0.00415947
0.00416344
0.00416741
0.00417138
0.00417535
0.00417933
0.00418331
0.00418729
0.00419127
0.00419525
0.00419924
0.00420323
0.00420722
0.00421121
0.0042152
0.0042192
0.00422319
0.00422719
0.0042312
0.0042352
0.0042392
0.00424321
0.00424722
0.00425123
0.00425524
0.00425926
0.00426327
0.0042673
0.00427132
0.00427533
0.00427936
0.00428338
0.00428742
0.00429145
0.00429547
0.00429951
0.00430354
0.00430758
0.00431162
0.00431566
0.0043197
0.00432375
0.0043278
0.00433185
0.00433589
0.00433995
0.004344
0.00434806
0.00435212
0.00435617
0.00436023
0.0043643
0.00436837
0.00437243
0.0043765
0.00438057
0.00438464
0.00438872
0.0043928
0.00439687
0.00440095
0.00440503
0.00440912
0.00441321
0.00441729
0.00442138
0.00442547
0.00442957
0.00443367
0.00443777
0.00444186
0.00444596
0.00445007
0.00445418
0.00445828
0.00446239
0.0044665
0.00447061
0.00447473
0.00447885
0.00448296
0.00448709
0.00449121
0.00449533
0.00449946
0.00450359
0.00450772
0.00451185
0.00451598
0.00452012
0.00452425
0.00452839
0.00453253
0.00453668
0.00454082
0.00454497
0.00454912
0.00455327
0.00455742
0.00456158
0.00456573
0.00456989
0.00457405
0.00457821
0.00458238
0.00458654
0.00459071
0.00459488
0.00459905
0.00460322
0.0046074
0.00461157
0.00461575
0.00461993
0.00462412
0.0046283
0.00463249
0.00463668
0.00464087
0.00464506
0.00464926
0.00465345
0.00465765
0.00466185
0.00466605
0.00467026
0.00467446
0.00467867
0.00468288
0.00468709
0.00469131
0.00469552
0.00469974
0.00470395
0.00470818
0.0047124
0.00471662
0.00472085
0.00472508
0.00472931
0.00473354
0.00473777
0.00474201
0.00474625
0.00475049
0.00475473
0.00475897
0.00476322
0.00476746
0.00477171
0.00477596
0.00478021
0.00478447
0.00478873
0.00479299
0.00479725
0.00480151
0.00480577
0.00481003
0.00481431
0.00481857
0.00482284
0.00482712
0.00483139
0.00483567
0.00483995
0.00484423
0.00484851
0.0048528
0.00485709
0.00486138
0.00486567
0.00486996
0.00487426
0.00487855
0.00488285
0.00488715
0.00489145
0.00489576
0.00490006
0.00490437
0.00490868
0.00491299
0.00491731
0.00492162
0.00492594
0.00493026
0.00493458
0.0049389
0.00494323
0.00494756
0.00495188
0.00495621
0.00496055
0.00496488
0.00496922
0.00497355
0.00497789
0.00498223
0.00498658
0.00499092
0.00499527
0.00499962
0.00500397
0.00500832
0.00501268
0.00501704
0.00502139
0.00502575
0.00503012
0.00503448
0.00503885
0.00504322
0.00504759
0.00505196
0.00505633
0.00506071
0.00506509
0.00506947
0.00507385
0.00507823
0.00508262
0.00508701
0.0050914
0.00509579
0.00510018
0.00510458
0.00510897
0.00511337
0.00511777
0.00512217
0.00512658
0.00513099
0.00513539
0.0051398
0.00514421
0.00514863
0.00515305
0.00515746
0.00516188
0.0051663
0.00517073
0.00517515
0.00517958
0.00518401
0.00518844
0.00519287
0.00519731
0.00520174
0.00520618
0.00521062
0.00521506
0.00521951
0.00522395
0.0052284
0.00523284
0.0052373
0.00524175
0.0052462
0.00525066
0.00525512
0.00525958
0.00526405
0.00526851
0.00527298
0.00527745
0.00528192
0.00528639
0.00529087
0.00529534
0.00529982
0.0053043
0.00530878
0.00531327
0.00531775
0.00532224
0.00532673
0.00533122
0.00533572
0.00534021
0.00534471
0.0053492
0.00535371
0.00535821
0.00536271
0.00536722
0.00537173
0.00537624
0.00538075
0.00538526
0.00538978
0.0053943
0.00539882
0.00540334
0.00540786
0.00541239
0.00541691
0.00542145
0.00542598
0.00543051
0.00543504
0.00543958
0.00544412
0.00544866
0.0054532
0.00545774
0.00546229
0.00546684
0.00547139
0.00547594
0.00548049
0.00548505
0.00548961
0.00549417
0.00549873
0.00550329
0.00550786
0.00551243
0.005517
0.00552157
0.00552614
0.00553071
0.00553529
0.00553987
0.00554445
0.00554903
0.00555362
0.0055582
0.00556279
0.00556738
0.00557197
0.00557657
0.00558116
0.00558576
0.00559036
0.00559496
0.00559956
0.00560417
0.00560878
0.00561338
0.00561799
0.0056226
0.00562722
0.00563184
0.00563645
0.00564107
0.00564569
0.00565032
0.00565495
0.00565957
0.0056642
0.00566883
0.00567346
0.0056781
0.00568274
0.00568737
0.00569201
0.00569666
0.0057013
0.00570595
0.0057106
0.00571525
0.0057199
0.00572455
0.00572921
0.00573387
0.00573853
0.00574319
0.00574785
0.00575252
0.00575719
0.00576186
0.00576653
0.0057712
0.00577588
0.00578056
0.00578523
0.00578991
0.0057946
0.00579928
0.00580397
0.00580865
0.00581335
0.00581804
0.00582273
0.00582743
0.00583212
0.00583682
0.00584152
0.00584623
0.00585094
0.00585564
0.00586035
0.00586506
0.00586977
0.00587449
0.0058792
0.00588392
0.00588864
0.00589337
0.00589809
0.00590281
0.00590754
0.00591227
0.005917
0.00592174
0.00592647
0.00593121
0.00593595
0.00594069
0.00594544
0.00595018
0.00595493
0.00595968
0.00596443
0.00596918
0.00597394
0.00597869
0.00598345
0.00598821
0.00599297
0.00599774
0.0060025
0.00600727
0.00601204
0.00601681
0.00602159
0.00602636
0.00603114
0.00603592
0.0060407
0.00604548
0.00605026
0.00605505
0.00605984
0.00606463
0.00606942
0.00607422
0.00607901
0.00608381
0.00608861
0.00609341
0.00609821
0.00610302
0.00610783
0.00611264
0.00611745
0.00612226
0.00612707
0.00613189
0.00613671
0.00614153
0.00614636
0.00615118
0.00615601
0.00616083
0.00616567
0.0061705
0.00617533
0.00618017
0.00618501
0.00618985
0.00619469
0.00619953
0.00620438
0.00620922
0.00621408
0.00621893
0.00622378
0.00622863
0.00623349
0.00623835
0.00624321
0.00624807
0.00625294
0.0062578
0.00626267
0.00626754
0.00627241
0.00627729