/*--------------------------------*- C++ -*----------------------------------*\
| =========                 |                                                 |
| \\      /  F ield         | OpenFOAM: The Open Source CFD Toolbox           |
|  \\    /   O peration     | Version:  2206                                  |
|   \\  /    A nd           | Website:  www.openfoam.com                      |
|    \\/     M anipulation  |                                                 |
\*---------------------------------------------------------------------------*/
FoamFile
{
    version     2.0;
    format      ascii;
    arch        "LSB;label=32;scalar=64";
    class       volVectorField;
    location    "540";
    object      U;
}
// * * * * * * * * * * * * * * * * * * * * * * * * * * * * * * * * * * * * * //

dimensions      [0 1 -1 0 0 0 0];

internalField   nonuniform List<vector> 
100000
(
(-5.77583e-12 6.47742e-06 -1.4474e-13)
(-5.28258e-12 1.2093e-05 8.29453e-14)
(-8.25219e-12 2.20436e-05 1.47292e-13)
(-1.46176e-11 3.27286e-05 1.53125e-13)
(-1.80591e-11 4.24155e-05 8.88276e-14)
(-1.70458e-11 4.49079e-05 7.51083e-14)
(-2.07655e-11 5.48173e-05 1.41858e-13)
(-2.64323e-11 6.56443e-05 1.48037e-13)
(-3.13926e-11 7.64528e-05 1.49747e-13)
(-3.59667e-11 8.62261e-05 8.4189e-14)
(-3.4059e-11 8.86529e-05 7.83866e-14)
(-3.84712e-11 9.85357e-05 1.43198e-13)
(-4.36995e-11 0.000109367 1.48717e-13)
(-4.89256e-11 0.000120185 1.47903e-13)
(-5.34034e-11 0.000129982 8.3552e-14)
(-5.14321e-11 0.000132396 7.88856e-14)
(-5.60636e-11 0.000142266 1.4443e-13)
(-6.09345e-11 0.000153097 1.48239e-13)
(-6.66881e-11 0.000163919 1.47864e-13)
(-7.04533e-11 0.000173727 8.2405e-14)
(-6.93972e-11 0.000176138 8.00184e-14)
(-7.28878e-11 0.000186001 1.44149e-13)
(-7.91723e-11 0.00019684 1.49838e-13)
(-8.3296e-11 0.000207757 1.51452e-13)
(-8.96074e-11 0.000218587 1.48119e-13)
(-9.31252e-11 0.000228404 8.36623e-14)
(-9.20032e-11 0.000230812 8.02973e-14)
(-9.57845e-11 0.00024067 1.46557e-13)
(-1.0153e-10 0.0002515 1.49561e-13)
(-1.06427e-10 0.000262324 1.48427e-13)
(-1.11109e-10 0.000272144 8.26606e-14)
(-1.0903e-10 0.000274551 8.09086e-14)
(-1.13609e-10 0.000284406 1.4607e-13)
(-1.18692e-10 0.000295236 1.49738e-13)
(-1.24134e-10 0.000306061 1.47798e-13)
(-1.28361e-10 0.000315883 8.26703e-14)
(-1.26664e-10 0.00031829 8.07483e-14)
(-1.30932e-10 0.000328142 1.46217e-13)
(-1.36272e-10 0.000338972 1.4945e-13)
(-1.41498e-10 0.000349798 1.47678e-13)
(-1.459e-10 0.000359622 8.2386e-14)
(-1.44063e-10 0.000362028 8.08706e-14)
(-1.48448e-10 0.000371879 1.46124e-13)
(-1.53692e-10 0.000382709 1.494e-13)
(-1.58994e-10 0.000393535 1.4744e-13)
(-1.63334e-10 0.000403361 8.22869e-14)
(-1.61548e-10 0.000405767 8.08619e-14)
(-1.65898e-10 0.000415616 1.46141e-13)
(-1.71165e-10 0.000426446 1.49281e-13)
(-1.76451e-10 0.000437272 1.47321e-13)
(-1.80795e-10 0.000447099 8.21437e-14)
(-1.79017e-10 0.000449505 8.09148e-14)
(-1.83352e-10 0.000459353 1.46097e-13)
(-1.88644e-10 0.000470183 1.49242e-13)
(-1.93893e-10 0.000481009 1.47164e-13)
(-1.98284e-10 0.000490837 8.20895e-14)
(-1.96448e-10 0.000493243 8.08893e-14)
(-2.00858e-10 0.00050309 1.46138e-13)
(-2.06057e-10 0.00051392 1.49122e-13)
(-2.11418e-10 0.000524746 1.47135e-13)
(-2.15672e-10 0.000534575 8.19259e-14)
(-2.14003e-10 0.000536981 8.10073e-14)
(-2.18213e-10 0.000546827 1.46008e-13)
(-2.23652e-10 0.000557657 1.49216e-13)
(-2.28725e-10 0.000568483 1.46877e-13)
(-2.33323e-10 0.000578313 8.20654e-14)
(-2.31242e-10 0.000580718 8.07753e-14)
(-2.35948e-10 0.000590565 1.46294e-13)
(-2.40792e-10 0.000601394 1.48821e-13)
(-2.46576e-10 0.00061222 1.47226e-13)
(-2.50322e-10 0.000622051 8.15032e-14)
(-2.49263e-10 0.000624456 8.13975e-14)
(-2.52747e-10 0.000634302 1.45598e-13)
(-2.59058e-10 0.000645139 1.50358e-13)
(-2.63168e-10 0.000656057 1.50868e-13)
(-2.69485e-10 0.000666891 1.4682e-13)
(-2.72982e-10 0.000676723 8.25315e-14)
(-2.71895e-10 0.000679128 8.08559e-14)
(-2.75657e-10 0.000688973 1.4685e-13)
(-2.81423e-10 0.000699802 1.49202e-13)
(-2.86294e-10 0.000710629 1.47467e-13)
(-2.9099e-10 0.000720461 8.18323e-14)
(-2.88907e-10 0.000722866 8.13776e-14)
(-2.93499e-10 0.000732711 1.46378e-13)
(-2.98573e-10 0.00074354 1.49512e-13)
(-3.04019e-10 0.000754367 1.47091e-13)
(-3.08235e-10 0.000764198 8.20311e-14)
(-3.06554e-10 0.000766604 8.11642e-14)
(-3.10811e-10 0.000776448 1.4652e-13)
(-3.16165e-10 0.000787277 1.49321e-13)
(-3.21374e-10 0.000798104 1.47141e-13)
(-3.25789e-10 0.000807936 8.18903e-14)
(-3.23941e-10 0.000810341 8.12357e-14)
(-3.28342e-10 0.000820185 1.46432e-13)
(-3.33571e-10 0.000831014 1.49325e-13)
(-3.38889e-10 0.000841841 1.47045e-13)
(-3.43205e-10 0.000851674 8.18753e-14)
(-3.41449e-10 0.000854079 8.12141e-14)
(-3.45765e-10 0.000863923 1.46416e-13)
(-3.51077e-10 0.000874751 1.49287e-13)
(-3.56311e-10 0.000885579 1.46983e-13)
(-3.60713e-10 0.000895411 8.1856e-14)
(-3.58866e-10 0.000897816 8.11826e-14)
(-3.63283e-10 0.00090766 1.46432e-13)
(-3.6848e-10 0.000918489 1.49202e-13)
(-3.73844e-10 0.000929316 1.46996e-13)
(-3.78096e-10 0.000939149 8.17453e-14)
(-3.76426e-10 0.000941554 8.12733e-14)
(-3.80635e-10 0.000951397 1.46297e-13)
(-3.86078e-10 0.000962226 1.49309e-13)
(-3.9115e-10 0.000973053 1.46784e-13)
(-3.95748e-10 0.000982886 8.19184e-14)
(-3.93665e-10 0.000985292 8.10246e-14)
(-3.9837e-10 0.000995135 1.46574e-13)
(-4.0322e-10 0.00100596 1.48926e-13)
(-4.09e-10 0.00101679 1.47168e-13)
(-4.1275e-10 0.00102662 8.13812e-14)
(-4.11684e-10 0.00102903 8.1637e-14)
(-4.15171e-10 0.00103887 1.45861e-13)
(-4.21484e-10 0.00104971 1.50478e-13)
(-4.25594e-10 0.00106063 1.50793e-13)
(-4.3191e-10 0.00107146 1.46613e-13)
(-4.35406e-10 0.0010813 8.23362e-14)
(-4.34322e-10 0.0010837 8.0981e-14)
(-4.38082e-10 0.00109354 1.46936e-13)
(-4.43851e-10 0.00110437 1.49158e-13)
(-4.48718e-10 0.0011152 1.47293e-13)
(-4.53415e-10 0.00112503 8.16698e-14)
(-4.51333e-10 0.00112744 8.14978e-14)
(-4.55924e-10 0.00113728 1.46473e-13)
(-4.61001e-10 0.00114811 1.49488e-13)
(-4.66443e-10 0.00115894 1.46948e-13)
(-4.70661e-10 0.00116877 8.18949e-14)
(-4.68978e-10 0.00117118 8.12789e-14)
(-4.73239e-10 0.00118102 1.46626e-13)
(-4.78589e-10 0.00119185 1.4931e-13)
(-4.83804e-10 0.00120267 1.47032e-13)
(-4.8821e-10 0.00121251 8.17668e-14)
(-4.86373e-10 0.00121491 8.13572e-14)
(-4.90761e-10 0.00122476 1.46532e-13)
(-4.96007e-10 0.00123558 1.49342e-13)
(-5.01305e-10 0.00124641 1.46943e-13)
(-5.05644e-10 0.00125625 8.17886e-14)
(-5.0386e-10 0.00125865 8.13101e-14)
(-5.08209e-10 0.00126849 1.46547e-13)
(-5.13483e-10 0.00127932 1.49283e-13)
(-5.18763e-10 0.00129015 1.4694e-13)
(-5.23109e-10 0.00129998 8.17369e-14)
(-5.21328e-10 0.00130239 8.13329e-14)
(-5.25665e-10 0.00131223 1.46498e-13)
(-5.3096e-10 0.00132306 1.4929e-13)
(-5.36208e-10 0.00133389 1.46874e-13)
(-5.40598e-10 0.00134372 8.17563e-14)
(-5.38761e-10 0.00134613 8.12809e-14)
(-5.43169e-10 0.00135597 1.46534e-13)
(-5.48376e-10 0.0013668 1.49204e-13)
(-5.53732e-10 0.00137762 1.46917e-13)
(-5.57989e-10 0.00138746 8.1651e-14)
(-5.56314e-10 0.00138986 8.13771e-14)
(-5.60528e-10 0.00139971 1.46396e-13)
(-5.65968e-10 0.00141053 1.49327e-13)
(-5.71042e-10 0.00142136 1.46716e-13)
(-5.75638e-10 0.0014312 8.18406e-14)
(-5.73557e-10 0.0014336 8.11227e-14)
(-5.78259e-10 0.00144344 1.46679e-13)
(-5.83113e-10 0.00145427 1.48949e-13)
(-5.8889e-10 0.0014651 1.47118e-13)
(-5.92642e-10 0.00147493 8.13104e-14)
(-5.91573e-10 0.00147734 8.17375e-14)
(-5.95062e-10 0.00148718 1.45962e-13)
(-6.01375e-10 0.00149802 1.50512e-13)
(-6.05485e-10 0.00150894 1.50733e-13)
(-6.11801e-10 0.00151977 1.46491e-13)
(-6.15295e-10 0.00152961 8.22274e-14)
(-6.14215e-10 0.00153201 8.1031e-14)
(-6.17973e-10 0.00154185 1.46955e-13)
(-6.23743e-10 0.00155268 1.49113e-13)
(-6.28607e-10 0.00156351 1.47182e-13)
(-6.33306e-10 0.00157334 8.15768e-14)
(-6.31223e-10 0.00157575 8.15452e-14)
(-6.35817e-10 0.00158559 1.46502e-13)
(-6.40891e-10 0.00159642 1.49451e-13)
(-6.46335e-10 0.00160725 1.46855e-13)
(-6.5055e-10 0.00161708 8.18084e-14)
(-6.48872e-10 0.00161949 8.13314e-14)
(-6.53128e-10 0.00162933 1.46656e-13)
(-6.58485e-10 0.00164016 1.49288e-13)
(-6.63691e-10 0.00165098 1.46946e-13)
(-6.68106e-10 0.00166082 8.16972e-14)
(-6.66258e-10 0.00166322 8.14014e-14)
(-6.7066e-10 0.00167306 1.46577e-13)
(-6.7589e-10 0.00168389 1.49316e-13)
(-6.81207e-10 0.00169472 1.46884e-13)
(-6.85523e-10 0.00170456 8.17082e-14)
(-6.83766e-10 0.00170696 8.13776e-14)
(-6.88083e-10 0.0017168 1.4657e-13)
(-6.93396e-10 0.00172763 1.49296e-13)
(-6.98629e-10 0.00173846 1.46853e-13)
(-7.03031e-10 0.00174829 8.1711e-14)
(-7.01183e-10 0.0017507 8.13443e-14)
(-7.056e-10 0.00176054 1.46592e-13)
(-7.108e-10 0.00177137 1.49229e-13)
(-7.16162e-10 0.00178219 1.46893e-13)
(-7.20415e-10 0.00179203 8.162e-14)
(-7.18742e-10 0.00179444 8.1433e-14)
(-7.22953e-10 0.00180428 1.46463e-13)
(-7.28397e-10 0.0018151 1.49351e-13)
(-7.33469e-10 0.00182593 1.46702e-13)
(-7.38066e-10 0.00183577 8.18111e-14)
(-7.35983e-10 0.00183817 8.1181e-14)
(-7.40686e-10 0.00184801 1.46745e-13)
(-7.4554e-10 0.00185884 1.48978e-13)
(-7.51318e-10 0.00186967 1.4711e-13)
(-7.5507e-10 0.00187951 8.12857e-14)
(-7.54e-10 0.00188191 8.17957e-14)
(-7.57489e-10 0.00189175 1.46029e-13)
(-7.63802e-10 0.00190259 1.50546e-13)
(-7.67913e-10 0.00191351 1.5072e-13)
(-7.74228e-10 0.00192434 1.46445e-13)
(-7.77722e-10 0.00193418 8.21826e-14)
(-7.76642e-10 0.00193658 8.10643e-14)
(-7.804e-10 0.00194642 1.46982e-13)
(-7.86171e-10 0.00195725 1.49106e-13)
(-7.91035e-10 0.00196808 1.47143e-13)
(-7.95733e-10 0.00197791 8.15366e-14)
(-7.93651e-10 0.00198032 8.15801e-14)
(-7.98244e-10 0.00199016 1.46531e-13)
(-8.0332e-10 0.00200099 1.4945e-13)
(-8.08761e-10 0.00201182 1.4682e-13)
(-8.12979e-10 0.00202165 8.17755e-14)
(-8.11297e-10 0.00202406 8.13634e-14)
(-8.15558e-10 0.0020339 1.46692e-13)
(-8.20909e-10 0.00204473 1.49286e-13)
(-8.26122e-10 0.00205555 1.46922e-13)
(-8.30529e-10 0.00206539 8.16605e-14)
(-8.28691e-10 0.00206779 8.14432e-14)
(-8.3308e-10 0.00207764 1.46605e-13)
(-8.38326e-10 0.00208846 1.49331e-13)
(-8.43624e-10 0.00209929 1.46851e-13)
(-8.47963e-10 0.00210913 8.16942e-14)
(-8.46179e-10 0.00211153 8.13971e-14)
(-8.50527e-10 0.00212137 1.46627e-13)
(-8.55803e-10 0.0021322 1.49283e-13)
(-8.61082e-10 0.00214303 1.46863e-13)
(-8.65429e-10 0.00215286 8.16532e-14)
(-8.63647e-10 0.00215527 8.14209e-14)
(-8.67984e-10 0.00216511 1.46584e-13)
(-8.7328e-10 0.00217594 1.493e-13)
(-8.78528e-10 0.00218677 1.4681e-13)
(-8.82917e-10 0.0021966 8.16823e-14)
(-8.8108e-10 0.00219901 8.13696e-14)
(-8.85488e-10 0.00220885 1.46624e-13)
(-8.90696e-10 0.00221968 1.49223e-13)
(-8.96051e-10 0.0022305 1.46866e-13)
(-9.00309e-10 0.00224034 8.15857e-14)
(-8.98632e-10 0.00224274 8.14664e-14)
(-9.02847e-10 0.00225258 1.4649e-13)
(-9.08287e-10 0.00226341 1.49355e-13)
(-9.13362e-10 0.00227424 1.46675e-13)
(-9.17957e-10 0.00228408 8.1784e-14)
(-9.15876e-10 0.00228648 8.12116e-14)
(-9.20577e-10 0.00229632 1.46778e-13)
(-9.25433e-10 0.00230715 1.48982e-13)
(-9.31209e-10 0.00231798 1.4709e-13)
(-9.34962e-10 0.00232781 8.12591e-14)
(-9.33891e-10 0.00233022 8.18293e-14)
(-9.37381e-10 0.00234006 1.46061e-13)
(-9.43695e-10 0.0023509 1.50555e-13)
(-9.47805e-10 0.00236181 1.50695e-13)
(-9.5412e-10 0.00237265 1.46399e-13)
(-9.57613e-10 0.00238249 8.21417e-14)
(-9.56535e-10 0.00238489 8.1081e-14)
(-9.60292e-10 0.00239473 1.46985e-13)
(-9.66064e-10 0.00240556 1.49087e-13)
(-9.70926e-10 0.00241639 1.47099e-13)
(-9.75626e-10 0.00242622 8.15014e-14)
(-9.73543e-10 0.00242863 8.15953e-14)
(-9.78137e-10 0.00243847 1.4654e-13)
(-9.83211e-10 0.0024493 1.49433e-13)
(-9.88655e-10 0.00246012 1.46783e-13)
(-9.92869e-10 0.00246996 8.17398e-14)
(-9.91192e-10 0.00247237 8.13835e-14)
(-9.95447e-10 0.00248221 1.46698e-13)
(-1.0008e-09 0.00249303 1.49278e-13)
(-1.00601e-09 0.00250386 1.46883e-13)
(-1.01043e-09 0.0025137 8.16354e-14)
(-1.00858e-09 0.0025161 8.14549e-14)
(-1.01298e-09 0.00252594 1.46625e-13)
(-1.01821e-09 0.00253677 1.49312e-13)
(-1.02353e-09 0.0025476 1.46831e-13)
(-1.02784e-09 0.00255744 8.16527e-14)
(-1.02609e-09 0.00255984 8.14324e-14)
(-1.0304e-09 0.00256968 1.46622e-13)
(-1.03572e-09 0.00258051 1.493e-13)
(-1.04095e-09 0.00259134 1.46808e-13)
(-1.04535e-09 0.00260117 8.16613e-14)
(-1.0435e-09 0.00260358 8.14002e-14)
(-1.04792e-09 0.00261342 1.46648e-13)
(-1.05312e-09 0.00262425 1.49238e-13)
(-1.05848e-09 0.00263507 1.46856e-13)
(-1.06273e-09 0.00264491 8.15756e-14)
(-1.06106e-09 0.00264732 8.149e-14)
(-1.06527e-09 0.00265716 1.46522e-13)
(-1.07072e-09 0.00266798 1.49366e-13)
(-1.07579e-09 0.00267881 1.46673e-13)
(-1.08039e-09 0.00268865 8.17721e-14)
(-1.0783e-09 0.00269105 8.12385e-14)
(-1.08301e-09 0.00270089 1.46809e-13)
(-1.08786e-09 0.00271172 1.48998e-13)
(-1.09364e-09 0.00272255 1.47088e-13)
(-1.09739e-09 0.00273239 8.12498e-14)
(-1.09632e-09 0.00273479 8.18557e-14)
(-1.09981e-09 0.00274463 1.46093e-13)
(-1.10612e-09 0.00275547 1.50571e-13)
(-1.11023e-09 0.00276639 1.50692e-13)
(-1.11655e-09 0.00277722 1.4638e-13)
(-1.12004e-09 0.00278706 8.21232e-14)
(-1.11896e-09 0.00278946 8.10968e-14)
(-1.12272e-09 0.0027993 1.47e-13)
(-1.12849e-09 0.00281013 1.49086e-13)
(-1.13335e-09 0.00282096 1.47083e-13)
(-1.13805e-09 0.00283079 8.14839e-14)
(-1.13597e-09 0.0028332 8.16128e-14)
(-1.14056e-09 0.00284304 1.46554e-13)
(-1.14564e-09 0.00285387 1.49435e-13)
(-1.15108e-09 0.0028647 1.46768e-13)
(-1.1553e-09 0.00287453 8.1727e-14)
(-1.15362e-09 0.00287694 8.1398e-14)
(-1.15788e-09 0.00288678 1.46718e-13)
(-1.16323e-09 0.00289761 1.49277e-13)
(-1.16844e-09 0.00290843 1.46877e-13)
(-1.17285e-09 0.00291827 8.16165e-14)
(-1.17101e-09 0.00292067 8.1479e-14)
(-1.1754e-09 0.00293051 1.46635e-13)
(-1.18065e-09 0.00294134 1.49327e-13)
(-1.18594e-09 0.00295217 1.46811e-13)
(-1.19028e-09 0.00296201 8.16542e-14)
(-1.1885e-09 0.00296441 8.14342e-14)
(-1.19285e-09 0.00297425 1.46661e-13)
(-1.19812e-09 0.00298508 1.49283e-13)
(-1.2034e-09 0.00299591 1.46829e-13)
(-1.20775e-09 0.00300574 8.16171e-14)
(-1.20597e-09 0.00300815 8.1459e-14)
(-1.2103e-09 0.00301799 1.46621e-13)
(-1.2156e-09 0.00302882 1.49304e-13)
(-1.22085e-09 0.00303965 1.46782e-13)
(-1.22524e-09 0.00304948 8.16497e-14)
(-1.2234e-09 0.00305189 8.14088e-14)
(-1.22781e-09 0.00306173 1.46664e-13)
(-1.23302e-09 0.00307256 1.49232e-13)
(-1.23837e-09 0.00308338 1.46843e-13)
(-1.24263e-09 0.00309322 8.15566e-14)
(-1.24095e-09 0.00309562 8.15066e-14)
(-1.24517e-09 0.00310546 1.46533e-13)
(-1.25061e-09 0.00311629 1.49367e-13)
(-1.25568e-09 0.00312712 1.46657e-13)
(-1.26028e-09 0.00313696 8.17581e-14)
(-1.2582e-09 0.00313936 8.12524e-14)
(-1.2629e-09 0.0031492 1.46823e-13)
(-1.26775e-09 0.00316003 1.48998e-13)
(-1.27353e-09 0.00317086 1.47076e-13)
(-1.27728e-09 0.00318069 8.12353e-14)
(-1.27621e-09 0.0031831 8.1872e-14)
(-1.2797e-09 0.00319294 1.46107e-13)
(-1.28601e-09 0.00320378 1.50575e-13)
(-1.29013e-09 0.00321469 1.50677e-13)
(-1.29644e-09 0.00322553 1.46355e-13)
(-1.29993e-09 0.00323537 8.21012e-14)
(-1.29886e-09 0.00323777 8.11047e-14)
(-1.30261e-09 0.00324761 1.47e-13)
(-1.30838e-09 0.00325844 1.49075e-13)
(-1.31325e-09 0.00326927 1.47059e-13)
(-1.31795e-09 0.0032791 8.14653e-14)
(-1.31586e-09 0.00328151 8.16194e-14)
(-1.32046e-09 0.00329135 1.46558e-13)
(-1.32553e-09 0.00330218 1.49424e-13)
(-1.33098e-09 0.003313 1.46748e-13)
(-1.33519e-09 0.00332284 8.17066e-14)
(-1.33351e-09 0.00332525 8.14089e-14)
(-1.33777e-09 0.00333509 1.46719e-13)
(-1.34313e-09 0.00334591 1.49272e-13)
(-1.34833e-09 0.00335674 1.46853e-13)
(-1.35275e-09 0.00336658 8.1605e-14)
(-1.3509e-09 0.00336898 8.14814e-14)
(-1.3553e-09 0.00337882 1.46648e-13)
(-1.36053e-09 0.00338965 1.49311e-13)
(-1.36585e-09 0.00340048 1.46805e-13)
(-1.37016e-09 0.00341032 8.16251e-14)
(-1.36841e-09 0.00341272 8.14598e-14)
(-1.37272e-09 0.00342256 1.46648e-13)
(-1.37804e-09 0.00343339 1.49301e-13)
(-1.38327e-09 0.00344422 1.46786e-13)
(-1.38767e-09 0.00345405 8.16362e-14)
(-1.38582e-09 0.00345646 8.14286e-14)
(-1.39024e-09 0.0034663 1.46676e-13)
(-1.39544e-09 0.00347713 1.49243e-13)
(-1.4008e-09 0.00348795 1.46837e-13)
(-1.40506e-09 0.00349779 8.15529e-14)
(-1.40338e-09 0.0035002 8.15192e-14)
(-1.40759e-09 0.00351004 1.46552e-13)
(-1.41304e-09 0.00352086 1.49374e-13)
(-1.41811e-09 0.00353169 1.46657e-13)
(-1.42271e-09 0.00354153 8.17518e-14)
(-1.42062e-09 0.00354393 8.12684e-14)
(-1.42532e-09 0.00355377 1.46841e-13)
(-1.43018e-09 0.0035646 1.49008e-13)
(-1.43596e-09 0.00357543 1.47076e-13)
(-1.43971e-09 0.00358527 8.12311e-14)
(-1.43864e-09 0.00358767 8.18872e-14)
(-1.44213e-09 0.00359751 1.46127e-13)
(-1.44844e-09 0.00360835 1.50585e-13)
(-1.45255e-09 0.00361926 1.50677e-13)
(-1.45887e-09 0.0036301 1.46346e-13)
(-1.46236e-09 0.00363994 8.20917e-14)
(-1.46128e-09 0.00364234 8.1114e-14)
(-1.46504e-09 0.00365218 1.47009e-13)
(-1.47081e-09 0.00366301 1.49075e-13)
(-1.47567e-09 0.00367384 1.47051e-13)
(-1.48037e-09 0.00368368 8.14555e-14)
(-1.47829e-09 0.00368608 8.16305e-14)
(-1.48288e-09 0.00369592 1.46566e-13)
(-1.48796e-09 0.00370675 1.49427e-13)
(-1.4934e-09 0.00371758 1.4674e-13)
(-1.49762e-09 0.00372741 8.17008e-14)
(-1.49594e-09 0.00372982 8.14167e-14)
(-1.5002e-09 0.00373966 1.46733e-13)
(-1.50555e-09 0.00375049 1.49272e-13)
(-1.51076e-09 0.00376131 1.46852e-13)
(-1.51517e-09 0.00377115 8.15924e-14)
(-1.51333e-09 0.00377355 8.14987e-14)
(-1.51772e-09 0.00378339 1.46652e-13)
(-1.52297e-09 0.00379422 1.49324e-13)
(-1.52826e-09 0.00380505 1.4679e-13)
(-1.5326e-09 0.00381489 8.16322e-14)
(-1.53082e-09 0.00381729 8.14547e-14)
(-1.53517e-09 0.00382713 1.4668e-13)
(-1.54044e-09 0.00383796 1.49283e-13)
(-1.54572e-09 0.00384879 1.46811e-13)
(-1.55007e-09 0.00385862 8.15969e-14)
(-1.54829e-09 0.00386103 8.14804e-14)
(-1.55262e-09 0.00387087 1.46641e-13)
(-1.55792e-09 0.0038817 1.49307e-13)
(-1.56317e-09 0.00389253 1.46766e-13)
(-1.56756e-09 0.00390236 8.16315e-14)
(-1.56572e-09 0.00390477 8.14308e-14)
(-1.57013e-09 0.00391461 1.46687e-13)
(-1.57534e-09 0.00392543 1.49236e-13)
(-1.58069e-09 0.00393626 1.4683e-13)
(-1.58495e-09 0.0039461 8.154e-14)
(-1.58327e-09 0.0039485 8.15294e-14)
(-1.58749e-09 0.00395834 1.46557e-13)
(-1.59293e-09 0.00396917 1.49374e-13)
(-1.598e-09 0.00398 1.46646e-13)
(-1.6026e-09 0.00398984 8.17434e-14)
(-1.60052e-09 0.00399224 8.12757e-14)
(-1.60522e-09 0.00400208 1.4685e-13)
(-1.61007e-09 0.00401291 1.49006e-13)
(-1.61585e-09 0.00402374 1.47069e-13)
(-1.6196e-09 0.00403357 8.12216e-14)
(-1.61853e-09 0.00403598 8.18967e-14)
(-1.62202e-09 0.00404582 1.46134e-13)
(-1.62834e-09 0.00405666 1.50586e-13)
(-1.63245e-09 0.00406757 1.50667e-13)
(-1.63876e-09 0.00407841 1.4633e-13)
(-1.64225e-09 0.00408825 8.20776e-14)
(-1.64118e-09 0.00409065 8.11185e-14)
(-1.64493e-09 0.00410049 1.47008e-13)
(-1.65071e-09 0.00411132 1.49068e-13)
(-1.65557e-09 0.00412215 1.47035e-13)
(-1.66027e-09 0.00413198 8.14441e-14)
(-1.65818e-09 0.00413439 8.16335e-14)
(-1.66278e-09 0.00414423 1.46568e-13)
(-1.66785e-09 0.00415506 1.49418e-13)
(-1.6733e-09 0.00416588 1.46728e-13)
(-1.67751e-09 0.00417572 8.16868e-14)
(-1.67583e-09 0.00417813 8.14239e-14)
(-1.68009e-09 0.00418797 1.46731e-13)
(-1.68545e-09 0.00419879 1.49269e-13)
(-1.69065e-09 0.00420962 1.46835e-13)
(-1.69507e-09 0.00421946 8.15869e-14)
(-1.69322e-09 0.00422186 8.14972e-14)
(-1.69762e-09 0.0042317 1.46662e-13)
(-1.70285e-09 0.00424253 1.4931e-13)
(-1.70817e-09 0.00425336 1.46789e-13)
(-1.71248e-09 0.0042632 8.16085e-14)
(-1.71073e-09 0.0042656 8.14763e-14)
(-1.71504e-09 0.00427544 1.46663e-13)
(-1.72036e-09 0.00428627 1.49302e-13)
(-1.72559e-09 0.0042971 1.46772e-13)
(-1.72999e-09 0.00430693 8.1621e-14)
(-1.72814e-09 0.00430934 8.14458e-14)
(-1.73256e-09 0.00431918 1.46694e-13)
(-1.73776e-09 0.00433001 1.49246e-13)
(-1.74312e-09 0.00434083 1.46826e-13)
(-1.74738e-09 0.00435067 8.15391e-14)
(-1.7457e-09 0.00435308 8.15371e-14)
(-1.74991e-09 0.00436292 1.46571e-13)
(-1.75536e-09 0.00437374 1.49379e-13)
(-1.76043e-09 0.00438457 1.46648e-13)
(-1.76503e-09 0.00439441 8.17394e-14)
(-1.76294e-09 0.00439681 8.12866e-14)
(-1.76765e-09 0.00440665 1.46861e-13)
(-1.7725e-09 0.00441748 1.49014e-13)
(-1.77828e-09 0.00442831 1.47069e-13)
(-1.78203e-09 0.00443815 8.12195e-14)
(-1.78096e-09 0.00444055 8.19067e-14)
(-1.78445e-09 0.00445039 1.46147e-13)
(-1.79076e-09 0.00446123 1.50593e-13)
(-1.79487e-09 0.00447214 1.50668e-13)
(-1.80119e-09 0.00448298 1.46325e-13)
(-1.80468e-09 0.00449282 8.20722e-14)
(-1.8036e-09 0.00449522 8.11247e-14)
(-1.80736e-09 0.00450506 1.47015e-13)
(-1.81313e-09 0.00451589 1.49068e-13)
(-1.81799e-09 0.00452672 1.47032e-13)
(-1.82269e-09 0.00453656 8.14379e-14)
(-1.82061e-09 0.00453896 8.16415e-14)
(-1.8252e-09 0.0045488 1.46574e-13)
(-1.83028e-09 0.00455963 1.49422e-13)
(-1.83572e-09 0.00457046 1.46722e-13)
(-1.83994e-09 0.00458029 8.16843e-14)
(-1.83826e-09 0.0045827 8.14285e-14)
(-1.84252e-09 0.00459254 1.46742e-13)
(-1.84787e-09 0.00460336 1.49268e-13)
(-1.85308e-09 0.00461419 1.46837e-13)
(-1.85749e-09 0.00462403 8.15772e-14)
(-1.85565e-09 0.00462643 8.15111e-14)
(-1.86004e-09 0.00463627 1.46663e-13)
(-1.86529e-09 0.0046471 1.49323e-13)
(-1.87058e-09 0.00465793 1.46776e-13)
(-1.87492e-09 0.00466777 8.16182e-14)
(-1.87314e-09 0.00467017 8.14678e-14)
(-1.87749e-09 0.00468001 1.46692e-13)
(-1.88276e-09 0.00469084 1.49283e-13)
(-1.88804e-09 0.00470167 1.46799e-13)
(-1.89239e-09 0.0047115 8.15841e-14)
(-1.89061e-09 0.00471391 8.1494e-14)
(-1.89494e-09 0.00472375 1.46655e-13)
(-1.90024e-09 0.00473458 1.49308e-13)
(-1.90549e-09 0.00474541 1.46756e-13)
(-1.90988e-09 0.00475524 8.16197e-14)
(-1.90804e-09 0.00475765 8.14451e-14)
(-1.91245e-09 0.00476749 1.46701e-13)
(-1.91766e-09 0.00477831 1.4924e-13)
(-1.92301e-09 0.00478914 1.46821e-13)
(-1.92727e-09 0.00479898 8.15293e-14)
(-1.92559e-09 0.00480138 8.15441e-14)
(-1.92981e-09 0.00481122 1.46573e-13)
(-1.93525e-09 0.00482205 1.49378e-13)
(-1.94032e-09 0.00483288 1.4664e-13)
(-1.94492e-09 0.00484272 8.17338e-14)
(-1.94284e-09 0.00484512 8.12909e-14)
(-1.94754e-09 0.00485496 1.46867e-13)
(-1.95239e-09 0.00486579 1.49012e-13)
(-1.95817e-09 0.00487662 1.47064e-13)
(-1.96192e-09 0.00488645 8.12127e-14)
(-1.96085e-09 0.00488886 8.19127e-14)
(-1.96434e-09 0.0048987 1.46152e-13)
(-1.97066e-09 0.00490953 1.50593e-13)
(-1.97477e-09 0.00492045 1.50661e-13)
(-1.98108e-09 0.00493129 1.46314e-13)
(-1.98457e-09 0.00494113 8.20623e-14)
(-1.9835e-09 0.00494353 8.11275e-14)
(-1.98725e-09 0.00495337 1.47013e-13)
(-1.99303e-09 0.0049642 1.49063e-13)
(-1.99789e-09 0.00497503 1.4702e-13)
(-2.00259e-09 0.00498486 8.14301e-14)
(-2.0005e-09 0.00498727 8.16428e-14)
(-2.0051e-09 0.00499711 1.46575e-13)
(-2.01017e-09 0.00500794 1.49415e-13)
(-2.01562e-09 0.00501876 1.46714e-13)
(-2.01983e-09 0.0050286 8.16739e-14)
(-2.01815e-09 0.00503101 8.14338e-14)
(-2.02241e-09 0.00504085 1.46739e-13)
(-2.02777e-09 0.00505167 1.49267e-13)
(-2.03297e-09 0.0050625 1.46823e-13)
(-2.03739e-09 0.00507234 8.15748e-14)
(-2.03554e-09 0.00507474 8.15077e-14)
(-2.03994e-09 0.00508458 1.46671e-13)
(-2.04517e-09 0.00509541 1.49309e-13)
(-2.05049e-09 0.00510624 1.46779e-13)
(-2.0548e-09 0.00511608 8.15975e-14)
(-2.05305e-09 0.00511848 8.14872e-14)
(-2.05736e-09 0.00512832 1.46674e-13)
(-2.06268e-09 0.00513915 1.49303e-13)
(-2.06791e-09 0.00514998 1.46763e-13)
(-2.07231e-09 0.00515981 8.16108e-14)
(-2.07046e-09 0.00516222 8.14573e-14)
(-2.07488e-09 0.00517206 1.46705e-13)
(-2.08008e-09 0.00518289 1.49248e-13)
(-2.08544e-09 0.00519371 1.46818e-13)
(-2.0897e-09 0.00520355 8.15299e-14)
(-2.08802e-09 0.00520596 8.1549e-14)
(-2.09223e-09 0.00521579 1.46584e-13)
(-2.09768e-09 0.00522662 1.49382e-13)
(-2.10275e-09 0.00523745 1.46642e-13)
(-2.10735e-09 0.00524729 8.1731e-14)
(-2.10526e-09 0.00524969 8.1299e-14)
(-2.10997e-09 0.00525953 1.46875e-13)
(-2.11482e-09 0.00527036 1.49018e-13)
(-2.1206e-09 0.00528119 1.47064e-13)
(-2.12435e-09 0.00529103 8.12117e-14)
(-2.12328e-09 0.00529343 8.19198e-14)
(-2.12677e-09 0.00530327 1.46162e-13)
(-2.13308e-09 0.00531411 1.50599e-13)
(-2.13719e-09 0.00532502 1.50662e-13)
(-2.14351e-09 0.00533586 1.4631e-13)
(-2.147e-09 0.0053457 8.20589e-14)
(-2.14592e-09 0.0053481 8.1132e-14)
(-2.14968e-09 0.00535794 1.47019e-13)
(-2.15545e-09 0.00536877 1.49064e-13)
(-2.16031e-09 0.0053796 1.47018e-13)
(-2.16501e-09 0.00538944 8.14259e-14)
(-2.16293e-09 0.00539184 8.1649e-14)
(-2.16753e-09 0.00540168 1.4658e-13)
(-2.1726e-09 0.00541251 1.49418e-13)
(-2.17804e-09 0.00542334 1.4671e-13)
(-2.18226e-09 0.00543317 8.1673e-14)
(-2.18058e-09 0.00543558 8.14365e-14)
(-2.18484e-09 0.00544542 1.46749e-13)
(-2.19019e-09 0.00545624 1.49266e-13)
(-2.1954e-09 0.00546707 1.46826e-13)
(-2.19981e-09 0.00547691 8.15667e-14)
(-2.19797e-09 0.00547931 8.15197e-14)
(-2.20236e-09 0.00548915 1.4667e-13)
(-2.20761e-09 0.00549998 1.49321e-13)
(-2.21291e-09 0.00551081 1.46767e-13)
(-2.21724e-09 0.00552065 8.16086e-14)
(-2.21546e-09 0.00552305 8.14767e-14)
(-2.21981e-09 0.00553289 1.467e-13)
(-2.22508e-09 0.00554372 1.49283e-13)
(-2.23036e-09 0.00555455 1.46791e-13)
(-2.23471e-09 0.00556438 8.15752e-14)
(-2.23293e-09 0.00556679 8.15034e-14)
(-2.23727e-09 0.00557663 1.46664e-13)
(-2.24256e-09 0.00558746 1.49309e-13)
(-2.24781e-09 0.00559828 1.46749e-13)
(-2.2522e-09 0.00560812 8.16116e-14)
(-2.25036e-09 0.00561053 8.14549e-14)
(-2.25477e-09 0.00562037 1.46711e-13)
(-2.25998e-09 0.00563119 1.49242e-13)
(-2.26533e-09 0.00564202 1.46815e-13)
(-2.26959e-09 0.00565186 8.15219e-14)
(-2.26791e-09 0.00565426 8.15545e-14)
(-2.27213e-09 0.0056641 1.46584e-13)
(-2.27757e-09 0.00567493 1.49382e-13)
(-2.28264e-09 0.00568576 1.46635e-13)
(-2.28724e-09 0.0056956 8.17271e-14)
(-2.28516e-09 0.005698 8.13015e-14)
(-2.28986e-09 0.00570784 1.46878e-13)
(-2.29472e-09 0.00571867 1.49016e-13)
(-2.30049e-09 0.0057295 1.4706e-13)
(-2.30424e-09 0.00573933 8.12064e-14)
(-2.30317e-09 0.00574174 8.19241e-14)
(-2.30666e-09 0.00575158 1.46164e-13)
(-2.31298e-09 0.00576241 1.50599e-13)
(-2.31709e-09 0.00577333 1.50656e-13)
(-2.3234e-09 0.00578417 1.46302e-13)
(-2.32689e-09 0.00579401 8.20514e-14)
(-2.32582e-09 0.00579641 8.1134e-14)
(-2.32957e-09 0.00580625 1.47017e-13)
(-2.33535e-09 0.00581708 1.49059e-13)
(-2.34021e-09 0.00582791 1.47009e-13)
(-2.34491e-09 0.00583774 8.14203e-14)
(-2.34282e-09 0.00584015 8.16494e-14)
(-2.34742e-09 0.00584999 1.4658e-13)
(-2.35249e-09 0.00586082 1.49412e-13)
(-2.35794e-09 0.00587164 1.46704e-13)
(-2.36215e-09 0.00588148 8.16646e-14)
(-2.36047e-09 0.00588389 8.14409e-14)
(-2.36473e-09 0.00589373 1.46745e-13)
(-2.37009e-09 0.00590455 1.49266e-13)
(-2.37529e-09 0.00591538 1.46814e-13)
(-2.37971e-09 0.00592522 8.15663e-14)
(-2.37786e-09 0.00592762 8.15151e-14)
(-2.38226e-09 0.00593746 1.46678e-13)
(-2.38749e-09 0.00594829 1.49309e-13)
(-2.39281e-09 0.00595912 1.46771e-13)
(-2.39712e-09 0.00596896 8.15895e-14)
(-2.39537e-09 0.00597136 8.14951e-14)
(-2.39968e-09 0.0059812 1.46681e-13)
(-2.405e-09 0.00599203 1.49303e-13)
(-2.41023e-09 0.00600286 1.46757e-13)
(-2.41463e-09 0.00601269 8.16036e-14)
(-2.41278e-09 0.0060151 8.14655e-14)
(-2.4172e-09 0.00602494 1.46713e-13)
(-2.4224e-09 0.00603577 1.49249e-13)
(-2.42776e-09 0.00604659 1.46813e-13)
(-2.43202e-09 0.00605643 8.15232e-14)
(-2.43034e-09 0.00605884 8.15577e-14)
(-2.43455e-09 0.00606867 1.46593e-13)
(-2.44e-09 0.0060795 1.49384e-13)
(-2.44507e-09 0.00609033 1.46637e-13)
(-2.44967e-09 0.00610017 8.1725e-14)
(-2.44758e-09 0.00610257 8.13079e-14)
(-2.45229e-09 0.00611241 1.46885e-13)
(-2.45714e-09 0.00612324 1.49021e-13)
(-2.46292e-09 0.00613407 1.47061e-13)
(-2.46667e-09 0.00614391 8.1206e-14)
(-2.4656e-09 0.00614631 8.19294e-14)
(-2.46909e-09 0.00615615 1.46172e-13)
(-2.4754e-09 0.00616699 1.50603e-13)
(-2.47951e-09 0.0061779 1.50657e-13)
(-2.48583e-09 0.00618874 1.463e-13)
(-2.48932e-09 0.00619858 8.20492e-14)
(-2.48824e-09 0.00620098 8.11373e-14)
(-2.492e-09 0.00621082 1.47022e-13)
(-2.49777e-09 0.00622165 1.4906e-13)
(-2.50264e-09 0.00623248 1.47008e-13)
(-2.50733e-09 0.00624231 8.14171e-14)
(-2.50525e-09 0.00624472 8.16545e-14)
(-2.50985e-09 0.00625456 1.46583e-13)
(-2.51492e-09 0.00626539 1.49416e-13)
(-2.52036e-09 0.00627621 1.46701e-13)
(-2.52458e-09 0.00628605 8.16648e-14)
(-2.5229e-09 0.00628846 8.14425e-14)
(-2.52716e-09 0.0062983 1.46753e-13)
(-2.53251e-09 0.00630912 1.49264e-13)
(-2.53772e-09 0.00631995 1.46818e-13)
(-2.54213e-09 0.00632979 8.15591e-14)
(-2.54029e-09 0.00633219 8.15259e-14)
(-2.54468e-09 0.00634203 1.46675e-13)
(-2.54993e-09 0.00635286 1.49321e-13)
(-2.55523e-09 0.00636369 1.4676e-13)
(-2.55956e-09 0.00637353 8.16015e-14)
(-2.55778e-09 0.00637593 8.14834e-14)
(-2.56213e-09 0.00638577 1.46706e-13)
(-2.56741e-09 0.0063966 1.49283e-13)
(-2.57268e-09 0.00640743 1.46785e-13)
(-2.57703e-09 0.00641726 8.15687e-14)
(-2.57525e-09 0.00641967 8.15104e-14)
(-2.57959e-09 0.00642951 1.46671e-13)
(-2.58488e-09 0.00644034 1.4931e-13)
(-2.59013e-09 0.00645116 1.46744e-13)
(-2.59452e-09 0.006461 8.16055e-14)
(-2.59268e-09 0.00646341 8.14622e-14)
(-2.59709e-09 0.00647325 1.46719e-13)
(-2.6023e-09 0.00648407 1.49243e-13)
(-2.60765e-09 0.0064949 1.46811e-13)
(-2.61191e-09 0.00650474 8.15164e-14)
(-2.61023e-09 0.00650714 8.1562e-14)
(-2.61445e-09 0.00651698 1.46592e-13)
(-2.61989e-09 0.00652781 1.49384e-13)
(-2.62496e-09 0.00653864 1.46631e-13)
(-2.62956e-09 0.00654848 8.17222e-14)
(-2.62748e-09 0.00655088 8.13094e-14)
(-2.63218e-09 0.00656072 1.46887e-13)
(-2.63704e-09 0.00657155 1.49019e-13)
(-2.64281e-09 0.00658238 1.47058e-13)
(-2.64657e-09 0.00659221 8.12018e-14)
(-2.64549e-09 0.00659462 8.19324e-14)
(-2.64898e-09 0.00660446 1.46173e-13)
(-2.6553e-09 0.00661529 1.50603e-13)
(-2.65941e-09 0.00662621 1.50652e-13)
(-2.66572e-09 0.00663705 1.46293e-13)
(-2.66921e-09 0.00664689 8.20433e-14)
(-2.66814e-09 0.00664929 8.11387e-14)
(-2.67189e-09 0.00665913 1.4702e-13)
(-2.67767e-09 0.00666996 1.49057e-13)
(-2.68253e-09 0.00668079 1.47001e-13)
(-2.68723e-09 0.00669062 8.1413e-14)
(-2.68514e-09 0.00669303 8.16544e-14)
(-2.68974e-09 0.00670287 1.46584e-13)
(-2.69481e-09 0.0067137 1.49411e-13)
(-2.70026e-09 0.00672452 1.46697e-13)
(-2.70447e-09 0.00673436 8.16578e-14)
(-2.70279e-09 0.00673677 8.14462e-14)
(-2.70705e-09 0.0067466 1.4675e-13)
(-2.71241e-09 0.00675743 1.49265e-13)