/*--------------------------------*- C++ -*----------------------------------*\
| =========                 |                                                 |
| \\      /  F ield         | OpenFOAM: The Open Source CFD Toolbox           |
|  \\    /   O peration     | Version:  2206                                  |
|   \\  /    A nd           | Website:  www.openfoam.com                      |
|    \\/     M anipulation  |                                                 |
\*---------------------------------------------------------------------------*/
FoamFile
{
    version     2.0;
    format      ascii;
    arch        "LSB;label=32;scalar=64";
    class       volScalarField;
    location    "280";
    object      p;
}
// * * * * * * * * * * * * * * * * * * * * * * * * * * * * * * * * * * * * * //

dimensions      [0 2 -2 0 0 0 0];

internalField   nonuniform List<scalar> 
100000
(
1.72998e-09
2.017e-08
3.15234e-08
4.69779e-08
6.26189e-08
7.88856e-08
9.02091e-08
1.08185e-07
1.24582e-07
1.47392e-07
1.68254e-07
1.87847e-07
2.12915e-07
2.37979e-07
2.67946e-07
2.97818e-07
3.25237e-07
3.59681e-07
3.92427e-07
4.32334e-07
4.69674e-07
5.07488e-07
5.49096e-07
5.92855e-07
6.39376e-07
6.89095e-07
7.40026e-07
7.87742e-07
8.43056e-07
8.96591e-07
9.57112e-07
1.01571e-06
1.07373e-06
1.13718e-06
1.20065e-06
1.26964e-06
1.33793e-06
1.40464e-06
1.47764e-06
1.54994e-06
1.62837e-06
1.70559e-06
1.78167e-06
1.86368e-06
1.94531e-06
2.0328e-06
2.1193e-06
2.20448e-06
2.29577e-06
2.38651e-06
2.48327e-06
2.57889e-06
2.67335e-06
2.77376e-06
2.87379e-06
2.97966e-06
3.08459e-06
3.18814e-06
3.29789e-06
3.40697e-06
3.52225e-06
3.63617e-06
3.7492e-06
3.86785e-06
3.98651e-06
4.11057e-06
4.23423e-06
4.35585e-06
4.48447e-06
4.61146e-06
4.74581e-06
4.8774e-06
5.00978e-06
5.14579e-06
5.2842e-06
5.42521e-06
5.56965e-06
5.71511e-06
5.8576e-06
6.00757e-06
6.15587e-06
6.31114e-06
6.46449e-06
6.61732e-06
6.7756e-06
6.93388e-06
7.09776e-06
7.26085e-06
7.42248e-06
7.59035e-06
7.75757e-06
7.93092e-06
8.10305e-06
8.27406e-06
8.45104e-06
8.62759e-06
8.8101e-06
8.9915e-06
9.17173e-06
9.35794e-06
9.54374e-06
9.73544e-06
9.92614e-06
1.01155e-05
1.03111e-05
1.0506e-05
1.07071e-05
1.09068e-05
1.11057e-05
1.13101e-05
1.15146e-05
1.17245e-05
1.1934e-05
1.21415e-05
1.2356e-05
1.25688e-05
1.2789e-05
1.30064e-05
1.32247e-05
1.34465e-05
1.36708e-05
1.38977e-05
1.4128e-05
1.43593e-05
1.45877e-05
1.48235e-05
1.50577e-05
1.52989e-05
1.55381e-05
1.57768e-05
1.6021e-05
1.62651e-05
1.65149e-05
1.67639e-05
1.70114e-05
1.72652e-05
1.75183e-05
1.77775e-05
1.80355e-05
1.82925e-05
1.85553e-05
1.88178e-05
1.90862e-05
1.93535e-05
1.96196e-05
1.98917e-05
2.01634e-05
2.04411e-05
2.07176e-05
2.0993e-05
2.12743e-05
2.15553e-05
2.18421e-05
2.2128e-05
2.24125e-05
2.27032e-05
2.29932e-05
2.32895e-05
2.35843e-05
2.38784e-05
2.4178e-05
2.44776e-05
2.47827e-05
2.50873e-05
2.539e-05
2.56996e-05
2.60076e-05
2.6323e-05
2.66355e-05
2.6949e-05
2.7266e-05
2.75854e-05
2.79074e-05
2.82329e-05
2.85594e-05
2.88829e-05
2.9214e-05
2.95433e-05
2.98796e-05
3.0214e-05
3.05479e-05
3.08872e-05
3.12265e-05
3.15715e-05
3.19156e-05
3.22583e-05
3.26072e-05
3.29555e-05
3.33099e-05
3.36631e-05
3.40152e-05
3.43733e-05
3.47309e-05
3.50945e-05
3.54569e-05
3.58182e-05
3.61855e-05
3.65524e-05
3.69252e-05
3.7297e-05
3.76674e-05
3.80441e-05
3.84201e-05
3.88023e-05
3.91831e-05
3.9563e-05
3.99486e-05
4.03342e-05
4.07252e-05
4.11158e-05
4.15043e-05
4.18999e-05
4.22938e-05
4.26952e-05
4.30937e-05
4.3493e-05
4.3896e-05
4.43014e-05
4.47093e-05
4.51208e-05
4.55332e-05
4.59427e-05
4.63596e-05
4.67749e-05
4.71972e-05
4.76175e-05
4.80373e-05
4.84626e-05
4.88879e-05
4.93188e-05
4.97488e-05
5.01775e-05
5.06124e-05
5.10466e-05
5.1487e-05
5.19261e-05
5.23641e-05
5.28081e-05
5.32517e-05
5.37012e-05
5.41497e-05
5.45969e-05
5.50502e-05
5.55029e-05
5.59617e-05
5.64194e-05
5.68759e-05
5.73383e-05
5.78004e-05
5.82684e-05
5.87354e-05
5.9201e-05
5.96728e-05
6.0144e-05
6.06214e-05
6.10974e-05
6.15726e-05
6.20533e-05
6.25341e-05
6.30203e-05
6.35061e-05
6.39898e-05
6.44806e-05
6.49697e-05
6.54662e-05
6.59599e-05
6.64545e-05
6.69526e-05
6.74532e-05
6.79564e-05
6.8463e-05
6.89706e-05
6.94753e-05
6.99874e-05
7.04979e-05
7.10154e-05
7.15309e-05
7.20459e-05
7.25664e-05
7.30869e-05
7.36129e-05
7.41382e-05
7.4662e-05
7.51921e-05
7.57215e-05
7.62571e-05
7.67914e-05
7.73247e-05
7.78638e-05
7.84026e-05
7.89473e-05
7.9491e-05
8.00334e-05
8.05818e-05
8.11299e-05
8.16838e-05
8.22367e-05
8.27883e-05
8.33461e-05
8.39032e-05
8.44666e-05
8.50285e-05
8.55896e-05
8.61564e-05
8.67231e-05
8.72953e-05
8.7867e-05
8.84367e-05
8.90134e-05
8.95885e-05
9.0171e-05
9.07506e-05
9.13311e-05
9.19152e-05
9.25018e-05
9.30909e-05
9.36835e-05
9.4277e-05
9.48677e-05
9.54658e-05
9.60622e-05
9.66656e-05
9.72671e-05
9.78681e-05
9.84745e-05
9.90809e-05
9.9693e-05
0.000100304
0.000100914
0.00010153
0.000102145
0.000102767
0.000103387
0.000104006
0.000104632
0.000105256
0.000105887
0.000106517
0.000107145
0.000107779
0.000108413
0.000109053
0.000109692
0.00011033
0.000110973
0.000111617
0.000112266
0.000112914
0.000113561
0.000114214
0.000114866
0.000115524
0.000116182
0.000116838
0.0001175
0.000118162
0.000118829
0.000119496
0.000120161
0.000120833
0.000121503
0.000122181
0.000122856
0.000123531
0.000124211
0.000124892
0.000125577
0.000126265
0.000126953
0.000127639
0.000128332
0.000129024
0.000129723
0.000130419
0.000131116
0.000131817
0.000132519
0.000133226
0.000133933
0.000134638
0.000135349
0.000136059
0.000136776
0.000137492
0.000138206
0.000138926
0.000139646
0.000140372
0.000141097
0.00014182
0.00014255
0.000143279
0.000144014
0.000144748
0.000145481
0.00014622
0.000146958
0.000147703
0.000148446
0.000149188
0.000149936
0.000150684
0.000151437
0.00015219
0.000152941
0.000153699
0.000154455
0.000155219
0.00015598
0.000156741
0.000157507
0.000158274
0.000159045
0.000159818
0.000160593
0.000161365
0.000162144
0.000162922
0.000163706
0.000164489
0.000165271
0.000166059
0.000166846
0.00016764
0.000168432
0.000169223
0.00017002
0.000170817
0.000171619
0.000172421
0.000173221
0.000174027
0.000174833
0.000175645
0.000176456
0.000177265
0.000178081
0.000178896
0.000179717
0.000180537
0.000181356
0.000182181
0.000183005
0.000183836
0.000184665
0.000185493
0.000186327
0.00018716
0.000188
0.000188838
0.000189676
0.000190519
0.000191362
0.000192211
0.000193059
0.000193905
0.000194758
0.000195609
0.000196468
0.000197324
0.000198181
0.000199042
0.000199904
0.00020077
0.000201639
0.000202509
0.000203376
0.00020425
0.000205123
0.000206003
0.000206881
0.000207758
0.000208641
0.000209524
0.000210412
0.0002113
0.000212186
0.000213078
0.00021397
0.000214868
0.000215765
0.00021666
0.000217562
0.000218463
0.00021937
0.000220276
0.00022118
0.000222091
0.000223002
0.000223918
0.000224833
0.000225747
0.000226667
0.000227587
0.000228512
0.000229437
0.00023036
0.000231289
0.000232218
0.000233153
0.000234087
0.000235019
0.000235958
0.000236895
0.00023784
0.000238782
0.000239725
0.000240671
0.00024162
0.000242572
0.000243526
0.000244482
0.000245435
0.000246396
0.000247355
0.00024832
0.000249284
0.000250247
0.000251216
0.000252185
0.000253159
0.000254133
0.000255105
0.000256083
0.000257061
0.000258045
0.000259027
0.000260009
0.000260996
0.000261984
0.000262977
0.000263969
0.000264959
0.000265956
0.000266952
0.000267955
0.000268956
0.000269956
0.000270962
0.000271967
0.000272979
0.000273989
0.000274998
0.000276014
0.000277028
0.000278049
0.000279069
0.000280087
0.000281111
0.000282136
0.000283165
0.000284195
0.000285222
0.000286256
0.000287289
0.000288329
0.000289366
0.000290404
0.000291446
0.00029249
0.000293536
0.000294587
0.000295638
0.000296686
0.000297741
0.000298795
0.000299856
0.000300915
0.000301974
0.000303038
0.000304102
0.000305171
0.00030624
0.000307308
0.000308381
0.000309454
0.000310533
0.000311611
0.000312688
0.00031377
0.000314853
0.000315941
0.000317028
0.000318114
0.000319206
0.000320297
0.000321395
0.000322491
0.000323586
0.000324688
0.000325788
0.000326895
0.000328001
0.000329105
0.000330215
0.000331326
0.000332441
0.000333556
0.00033467
0.00033579
0.000336908
0.000338034
0.000339158
0.000340282
0.000341409
0.000342539
0.000343672
0.000344808
0.000345945
0.000347079
0.000348221
0.000349361
0.000350508
0.000351653
0.000352797
0.000353947
0.000355097
0.000356253
0.000357407
0.000358561
0.00035972
0.000360879
0.000362044
0.000363208
0.00036437
0.000365539
0.000366707
0.000367882
0.000369055
0.000370227
0.000371404
0.000372582
0.000373765
0.000374948
0.000376129
0.000377316
0.000378503
0.000379695
0.000380887
0.000382077
0.000383274
0.00038447
0.000385672
0.000386872
0.000388072
0.000389278
0.000390483
0.000391694
0.000392904
0.000394113
0.000395328
0.000396542
0.000397763
0.000398981
0.000400201
0.000401423
0.000402649
0.000403877
0.000405108
0.00040634
0.000407569
0.000408806
0.000410041
0.000411284
0.000412524
0.000413763
0.000415009
0.000416254
0.000417504
0.000418754
0.000420003
0.000421258
0.000422512
0.000423772
0.000425031
0.000426289
0.000427553
0.000428816
0.000430086
0.000431354
0.000432621
0.000433894
0.000435167
0.000436445
0.000437723
0.000438999
0.000440282
0.000441564
0.000442852
0.000444138
0.000445424
0.000446715
0.000448007
0.000449304
0.0004506
0.000451894
0.000453196
0.000454495
0.000455803
0.000457107
0.000458412
0.000459721
0.000461032
0.000462346
0.000463663
0.000464981
0.000466297
0.00046762
0.000468941
0.000470269
0.000471595
0.000472921
0.000474252
0.000475583
0.000476919
0.000478255
0.00047959
0.000480931
0.000482271
0.000483617
0.000484962
0.000486306
0.000487655
0.000489005
0.00049036
0.000491714
0.000493068
0.000494427
0.000495785
0.00049715
0.000498513
0.000499876
0.000501244
0.000502612
0.000503986
0.000505359
0.00050673
0.000508108
0.000509485
0.000510868
0.00051225
0.000513631
0.000515017
0.000516404
0.000517796
0.000519188
0.000520577
0.000521974
0.000523369
0.000524771
0.000526171
0.000527571
0.000528975
0.000530381
0.00053179
0.000533203
0.000534616
0.000536027
0.000537445
0.000538861
0.000540284
0.000541706
0.000543127
0.000544553
0.000545979
0.000547411
0.000548842
0.000550272
0.000551708
0.000553143
0.000554585
0.000556025
0.000557464
0.000558909
0.000560354
0.000561804
0.000563254
0.000564702
0.000566156
0.00056761
0.00056907
0.000570529
0.000571986
0.00057345
0.000574913
0.000576382
0.00057785
0.000579317
0.000580789
0.000582262
0.00058374
0.000585217
0.000586693
0.000588175
0.000589656
0.000591145
0.00059263
0.000594117
0.000595606
0.000597099
0.000598594
0.000600092
0.000601592
0.000603088
0.000604592
0.000606094
0.000607604
0.000609111
0.000610618
0.00061213
0.000613642
0.00061516
0.000616677
0.000618193
0.000619715
0.000621236
0.000622763
0.00062429
0.000625815
0.000627346
0.000628876
0.000630413
0.000631948
0.000633482
0.000635023
0.000636562
0.000638108
0.000639653
0.000641196
0.000642746
0.000644295
0.00064585
0.000647404
0.000648957
0.000650515
0.000652074
0.000653638
0.000655201
0.000656763
0.000658331
0.000659899
0.000661472
0.000663045
0.000664616
0.000666193
0.000667769
0.000669353
0.000670934
0.000672515
0.0006741
0.000675688
0.000677278
0.000678872
0.000680466
0.000682058
0.000683657
0.000685255
0.000686859
0.000688462
0.000690064
0.000691671
0.000693279
0.000694892
0.000696504
0.000698115
0.000699732
0.000701349
0.000702971
0.000704593
0.000706213
0.000707839
0.000709465
0.000711097
0.000712727
0.000714357
0.000715992
0.000717627
0.000719268
0.000720908
0.000722547
0.000724191
0.000725836
0.000727486
0.000729135
0.000730783
0.000732437
0.000734091
0.00073575
0.000737408
0.000739065
0.000740729
0.000742391
0.000744061
0.000745727
0.000747395
0.000749066
0.000750739
0.000752416
0.000754095
0.000755776
0.000757453
0.000759139
0.000760822
0.000762512
0.000764201
0.000765889
0.000767582
0.000769276
0.000770975
0.000772673
0.00077437
0.000776073
0.000777775
0.000779484
0.000781191
0.000782898
0.00078461
0.000786322
0.000788039
0.000789756
0.000791471
0.000793193
0.000794914
0.000796641
0.000798366
0.000800091
0.000801822
0.000803552
0.000805288
0.000807023
0.000808757
0.000810497
0.000812237
0.000813982
0.000815726
0.00081747
0.000819219
0.000820968
0.000822722
0.000824476
0.000826228
0.000827987
0.000829744
0.000831509
0.000833271
0.000835033
0.0008368
0.000838569
0.00084034
0.000842115
0.000843891
0.000845663
0.000847444
0.000849222
0.000851008
0.000852792
0.000854575
0.000856364
0.000858152
0.000859947
0.00086174
0.000863532
0.00086533
0.000867128
0.000868932
0.000870734
0.000872536
0.000874343
0.00087615
0.000877963
0.000879775
0.000881585
0.000883402
0.000885218
0.00088704
0.000888861
0.000890681
0.000892507
0.000894333
0.000896164
0.000897994
0.000899824
0.000901658
0.000903493
0.000905334
0.000907174
0.000909012
0.000910857
0.0009127
0.00091455
0.000916398
0.000918247
0.000920099
0.000921954
0.000923811
0.000925672
0.000927534
0.000929393
0.000931259
0.000933124
0.000934995
0.000936865
0.000938734
0.000940609
0.000942483
0.000944364
0.000946243
0.000948121
0.000950005
0.000951889
0.000953779
0.000955667
0.000957555
0.000959448
0.000961341
0.00096324
0.000965137
0.000967034
0.000968937
0.000970839
0.000972747
0.000974654
0.00097656
0.000978472
0.000980383
0.0009823
0.000984217
0.000986132
0.000988053
0.000989973
0.0009919
0.000993826
0.00099575
0.00099768
0.00099961
0.00100155
0.00100348
0.00100541
0.00100735
0.00100929
0.00101124
0.00101318
0.00101513
0.00101707
0.00101902
0.00102098
0.00102293
0.00102489
0.00102684
0.0010288
0.00103076
0.00103273
0.0010347
0.00103666
0.00103863
0.0010406
0.00104258
0.00104455
0.00104652
0.0010485
0.00105048
0.00105247
0.00105445
0.00105643
0.00105842
0.00106041
0.0010624
0.0010644
0.00106639
0.00106839
0.00107038
0.00107239
0.00107439
0.00107639
0.0010784
0.0010804
0.00108242
0.00108443
0.00108644
0.00108845
0.00109047
0.00109249
0.00109451
0.00109653
0.00109856
0.00110058
0.00110261
0.00110464
0.00110667
0.00110871
0.00111074
0.00111278
0.00111482
0.00111687
0.00111891
0.00112095
0.001123
0.00112505
0.0011271
0.00112915
0.00113121
0.00113326
0.00113533
0.00113739
0.00113945
0.00114151
0.00114358
0.00114565
0.00114772
0.00114979
0.00115186
0.00115393
0.00115601
0.00115809
0.00116017
0.00116225
0.00116434
0.00116643
0.00116852
0.0011706
0.0011727
0.00117479
0.00117689
0.00117898
0.00118108
0.00118318
0.00118528
0.00118739
0.0011895
0.0011916
0.00119372
0.00119583
0.00119794
0.00120006
0.00120217
0.0012043
0.00120642
0.00120854
0.00121067
0.00121279
0.00121492
0.00121705
0.00121919
0.00122132
0.00122346
0.0012256
0.00122774
0.00122988
0.00123203
0.00123417
0.00123632
0.00123847
0.00124062
0.00124278
0.00124493
0.00124709
0.00124925
0.00125141
0.00125357
0.00125574
0.0012579
0.00126007
0.00126224
0.00126442
0.00126659
0.00126876
0.00127094
0.00127312
0.00127531
0.00127749
0.00127967
0.00128186
0.00128405
0.00128624
0.00128843
0.00129063
0.00129282
0.00129502
0.00129722
0.00129943
0.00130163
0.00130383
0.00130604
0.00130825
0.00131046
0.00131267
0.00131489
0.00131711
0.00131933
0.00132155
0.00132377
0.00132599
0.00132822
0.00133045
0.00133268
0.00133492
0.00133715
0.00133938
0.00134162
0.00134386
0.0013461
0.00134835
0.00135059
0.00135284
0.00135509
0.00135734
0.00135959
0.00136185
0.0013641
0.00136636
0.00136862
0.00137088
0.00137315
0.00137541
0.00137768
0.00137995
0.00138222
0.00138449
0.00138677
0.00138905
0.00139133
0.0013936
0.00139589
0.00139817
0.00140046
0.00140275
0.00140503
0.00140733
0.00140962
0.00141192
0.00141421
0.00141651
0.00141881
0.00142111
0.00142342
0.00142573
0.00142803
0.00143034
0.00143265
0.00143497
0.00143729
0.00143961
0.00144192
0.00144425
0.00144657
0.0014489
0.00145123
0.00145355
0.00145588
0.00145822
0.00146055
0.00146289
0.00146523
0.00146757
0.00146991
0.00147226
0.0014746
0.00147695
0.0014793
0.00148165
0.00148401
0.00148636
0.00148872
0.00149108
0.00149344
0.0014958
0.00149817
0.00150053
0.0015029
0.00150527
0.00150764
0.00151002
0.00151239
0.00151477
0.00151715
0.00151953
0.00152191
0.00152429
0.00152668
0.00152907
0.00153146
0.00153386
0.00153625
0.00153864
0.00154104
0.00154344
0.00154585
0.00154825
0.00155065
0.00155306
0.00155547
0.00155789
0.0015603
0.00156271
0.00156513
0.00156755
0.00156997
0.0015724
0.00157482
0.00157725
0.00157967
0.00158211
0.00158454
0.00158697
0.00158941
0.00159184
0.00159429
0.00159673
0.00159917
0.00160161
0.00160406
0.00160651
0.00160896
0.00161141
0.00161387
0.00161632
0.00161878
0.00162124
0.0016237
0.00162616
0.00162863
0.0016311
0.00163357
0.00163604
0.00163851
0.00164098
0.00164346
0.00164594
0.00164842
0.0016509
0.00165338
0.00165587
0.00165836
0.00166085
0.00166334
0.00166583
0.00166833
0.00167083
0.00167333
0.00167582
0.00167833
0.00168083
0.00168334
0.00168585
0.00168836
0.00169087
0.00169339
0.00169591
0.00169842
0.00170094
0.00170346
0.00170599
0.00170851
0.00171104
0.00171357
0.0017161
0.00171863
0.00172117
0.00172371
0.00172624
0.00172878
0.00173132
0.00173387
0.00173642
0.00173896
0.00174151
0.00174406
0.00174662
0.00174917
0.00175173
0.00175429
0.00175685
0.00175941
0.00176197
0.00176454
0.00176711
0.00176968
0.00177225
0.00177482
0.0017774
0.00177997
0.00178255
0.00178513
0.00178772
0.00179031
0.00179289
0.00179548
0.00179807
0.00180067
0.00180326
0.00180586
0.00180845
0.00181105
0.00181366
0.00181626
0.00181887
0.00182147
0.00182408
0.0018267
0.00182931
0.00183192
0.00183454
0.00183716
0.00183978
0.0018424
0.00184503
0.00184765
0.00185028
0.00185291
0.00185554
0.00185818
0.00186081
0.00186345
0.00186609
0.00186873
0.00187137
0.00187402
0.00187666
0.00187931
0.00188196
0.00188461
0.00188727
0.00188992
0.00189258
0.00189524
0.0018979
0.00190056
0.00190323
0.0019059
0.00190857
0.00191124
0.00191391
0.00191658
0.00191926
0.00192194
0.00192462
0.0019273
0.00192999
0.00193267
0.00193536
0.00193805
0.00194074
0.00194344
0.00194613
0.00194883
0.00195153
0.00195423
0.00195693
0.00195964
0.00196235
0.00196505
0.00196776
0.00197047
0.00197319
0.00197591
0.00197862
0.00198134
0.00198406
0.00198678
0.00198951
0.00199224
0.00199497
0.0019977
0.00200043
0.00200317
0.0020059
0.00200864
0.00201138
0.00201412
0.00201686
0.00201961
0.00202235
0.00202511
0.00202785
0.00203061
0.00203336
0.00203612
0.00203888
0.00204164
0.0020444
0.00204717
0.00204994
0.0020527
0.00205547
0.00205824
0.00206102
0.0020638
0.00206657
0.00206935
0.00207213
0.00207492
0.0020777
0.00208049
0.00208328
0.00208607
0.00208886
0.00209166
0.00209445
0.00209725
0.00210005
0.00210285
0.00210566
0.00210846
0.00211127
0.00211408
0.00211689
0.0021197
0.00212251
0.00212533
0.00212815
0.00213097
0.00213379
0.00213662
0.00213944
0.00214227
0.0021451
0.00214793
0.00215076
0.0021536
0.00215644
0.00215928
0.00216212
0.00216496
0.0021678
0.00217065
0.0021735
0.00217635
0.0021792
0.00218205
0.00218491
0.00218777
0.00219063
0.00219349
0.00219635
0.00219922
0.00220208
0.00220496
0.00220783
0.0022107
0.00221357
0.00221645
0.00221933
0.00222221
0.00222509
0.00222797
0.00223086
0.00223375
0.00223664
0.00223953
0.00224242
0.00224532
0.00224822
0.00225112
0.00225401
0.00225692
0.00225982
0.00226273
0.00226564
0.00226854
0.00227146
0.00227437
0.00227729
0.00228021
0.00228312
0.00228604
0.00228897
0.00229189
0.00229482
0.00229775
0.00230068
0.00230361
0.00230654
0.00230948
0.00231242
0.00231536
0.0023183
0.00232124
0.00232419
0.00232713
0.00233008
0.00233303
0.00233599
0.00233894
0.0023419
0.00234486
0.00234782
0.00235078
0.00235375
0.00235671
0.00235968
0.00236265
0.00236562
0.0023686
0.00237157
0.00237455
0.00237753
0.00238051
0.00238349
0.00238648
0.00238946
0.00239245
0.00239544
0.00239844
0.00240143
0.00240442
0.00240742
0.00241042
0.00241342
0.00241643
0.00241943
0.00242244
0.00242545
0.00242846
0.00243147
0.00243448
0.0024375
0.00244052
0.00244354
0.00244656
0.00244958
0.00245261
0.00245564
0.00245867
0.0024617
0.00246473
0.00246776
0.0024708
0.00247384
0.00247688
0.00247993
0.00248297
0.00248602
0.00248906
0.00249212
0.00249517
0.00249822
0.00250128
0.00250434
0.0025074
0.00251046
0.00251352
0.00251659
0.00251965
0.00252272
0.0025258
0.00252886
0.00253194
0.00253502
0.0025381
0.00254118
0.00254426
0.00254734
0.00255043
0.00255352
0.0025566
0.00255969
0.00256279
0.00256588
0.00256898
0.00257208
0.00257518
0.00257828
0.00258138
0.00258449
0.0025876
0.00259071
0.00259382
0.00259693
0.00260005
0.00260317
0.00260628
0.0026094
0.00261252
0.00261565
0.00261878
0.0026219
0.00262503
0.00262817
0.0026313
0.00263444
0.00263758
0.00264071
0.00264386
0.002647
0.00265015
0.0026533
0.00265644
0.0026596
0.00266275
0.00266591
0.00266906
0.00267222
0.00267538
0.00267854
0.00268171
0.00268487
0.00268804
0.00269121
0.00269438
0.00269756
0.00270073
0.00270391
0.00270709
0.00271027
0.00271345
0.00271664
0.00271982
0.00272301
0.0027262
0.00272939
0.00273259
0.00273578
0.00273898
0.00274217
0.00274538
0.00274858
0.00275178
0.00275499
0.0027582
0.00276141
0.00276462
0.00276784
0.00277105
0.00277427
0.00277749
0.00278071
0.00278394
0.00278716
0.00279039
0.00279362
0.00279686
0.00280009
0.00280332
0.00280656
0.0028098
0.00281304
0.00281628
0.00281953
0.00282277
0.00282602
0.00282927
0.00283253
0.00283578
0.00283903
0.00284229
0.00284555
0.00284881
0.00285207
0.00285534
0.0028586
0.00286188
0.00286515
0.00286842
0.00287169
0.00287497
0.00287825
0.00288153
0.0028848
0.00288809
0.00289137
0.00289466
0.00289795
0.00290124
0.00290453
0.00290783
0.00291113
0.00291443
0.00291772
0.00292103
0.00292433
0.00292764
0.00293094
0.00293425
0.00293756
0.00294087
0.00294419
0.00294751
0.00295083
0.00295415
0.00295747
0.0029608
0.00296413
0.00296745
0.00297078
0.00297412
0.00297745
0.00298079
0.00298413
0.00298746
0.00299081
0.00299415
0.0029975
0.00300084
0.00300419
0.00300754
0.00301089
0.00301425
0.00301761
0.00302096
0.00302432
0.00302768
0.00303105
0.00303442
0.00303778
0.00304115
0.00304452
0.0030479
0.00305127
0.00305465
0.00305803
0.00306141
0.00306479
0.00306818
0.00307156
0.00307495
0.00307834
0.00308173
0.00308512
0.00308852
0.00309191
0.00309531
0.00309871
0.00310212
0.00310553
0.00310893
0.00311234
0.00311575
0.00311917
0.00312258
0.00312599
0.00312941
0.00313283
0.00313626
0.00313968
0.0031431
0.00314653
0.00314996
0.0031534
0.00315683
0.00316026
0.0031637
0.00316714
0.00317058
0.00317402
0.00317746
0.00318091
0.00318436
0.00318781
0.00319126
0.00319471
0.00319817
0.00320163
0.00320509
0.00320855
0.00321201
0.00321547
0.00321894
0.00322241
0.00322588
0.00322935
0.00323282
0.0032363
0.00323978
0.00324326
0.00324674
0.00325022
0.0032537
0.00325719
0.00326068
0.00326417
0.00326766
0.00327116
0.00327465
0.00327816
0.00328166
0.00328516
0.00328866
0.00329217
0.00329568
0.00329919
0.0033027
0.00330621
0.00330972
0.00331325
0.00331676
0.00332028
0.00332381
0.00332733
0.00333086
0.00333439
0.00333791
0.00334145
0.00334498
0.00334852
0.00335206
0.00335559
0.00335914
0.00336268
0.00336623
0.00336977
0.00337332
0.00337687
0.00338042
0.00338398
0.00338753
0.00339109
0.00339465
0.00339821
0.00340178
0.00340534
0.00340891
0.00341248
0.00341605
0.00341962
0.0034232
0.00342677
0.00343035
0.00343393
0.00343751
0.0034411
0.00344469
0.00344827
0.00345186
0.00345545
0.00345905
0.00346265
0.00346624
0.00346984
0.00347344
0.00347705
0.00348065
0.00348426
0.00348787
0.00349148
0.00349509
0.00349871
0.00350232
0.00350594
0.00350956
0.00351318
0.00351681
0.00352043
0.00352406
0.00352769
0.00353132
0.00353495
0.00353858
0.00354222
0.00354586
0.0035495
0.00355314
0.00355678
0.00356043
0.00356408
0.00356773
0.00357138
0.00357503
0.00357869
0.00358234
0.00358601
0.00358967
0.00359332
0.00359699
0.00360066
0.00360433
0.003608
0.00361167
0.00361534
0.00361901
0.00362269
0.00362637
0.00363006
0.00363374
0.00363742
0.00364111
0.0036448
0.00364849
0.00365218
0.00365588
0.00365957
0.00366328
0.00366698
0.00367068
0.00367438
0.00367809
0.0036818
0.00368551
0.00368921
0.00369293
0.00369664
0.00370036
0.00370408
0.0037078
0.00371152
0.00371525
0.00371897
0.0037227
0.00372643
0.00373016
0.00373389
0.00373763
0.00374137
0.00374511
0.00374885
0.00375259
0.00375634
0.00376008
0.00376383
0.00376758
0.00377133
0.00377509
0.00377884
0.0037826
0.00378636
0.00379012
0.00379389
0.00379765
0.00380142
0.00380519
0.00380896
0.00381273
0.00381651
0.00382029
0.00382406
0.00382785
0.00383163
0.00383541
0.0038392
0.00384299
0.00384678
0.00385057
0.00385436
0.00385816
0.00386195
0.00386575
0.00386955
0.00387336
0.00387716
0.00388097
0.00388478
0.00388859
0.0038924
0.00389622
0.00390003
0.00390385
0.00390767
0.00391149
0.00391531
0.00391914
0.00392296
0.00392679
0.00393062
0.00393446
0.00393829
0.00394213
0.00394596
0.00394981
0.00395365
0.00395749
0.00396133
0.00396518
0.00396903
0.00397288
0.00397673
0.00398059
0.00398445
0.00398831
0.00399217
0.00399603
0.00399989
0.00400376
0.00400763
0.0040115
0.00401537
0.00401925
0.00402312
0.004027
0.00403088
0.00403476
0.00403864
0.00404253
0.00404642
0.00405031
0.0040542
0.00405809
0.00406198
0.00406588
0.00406978
0.00407368
0.00407758
0.00408148
0.00408539
0.0040893
0.00409321
0.00409711
0.00410103
0.00410494
0.00410886
0.00411278
0.0041167
0.00412062
0.00412454
0.00412847
0.0041324
0.00413633
0.00414026
0.00414419
0.00414813
0.00415207
0.004156
0.00415994
0.00416389
0.00416783
0.00417178
0.00417573
0.00417968
0.00418363
0.00418758
0.00419154
0.0041955
0.00419946
0.00420342
0.00420739
0.00421135
0.00421532
0.00421929
0.00422326
0.00422723
0.00423121
0.00423519
0.00423916
0.00424314
0.00424712
0.00425111
0.0042551
0.00425908
0.00426307
0.00426706
0.00427106
0.00427505
0.00427905
0.00428305
0.00428705
0.00429105
0.00429506
0.00429906
0.00430307
0.00430708
0.00431109
0.00431511
0.00431912
0.00432314
0.00432716
0.00433118
0.0043352
0.00433922
0.00434325
0.00434728
0.00435131
0.00435534
0.00435938
0.00436341
0.00436745
0.00437149
0.00437554
0.00437958
0.00438362
0.00438767
0.00439172
0.00439578
0.00439983
0.00440388
0.00440794
0.004412
0.00441606
0.00442012
0.00442418
0.00442825
0.00443232
0.00443639
0.00444046
0.00444454
0.00444861
0.00445269
0.00445677
0.00446085
0.00446493
0.00446902
0.0044731
0.00447719
0.00448128
0.00448537
0.00448947
0.00449356
0.00449766
0.00450176
0.00450586
0.00450997
0.00451407
0.00451818
0.00452229
0.0045264
0.00453051
0.00453462
0.00453874
0.00454286
0.00454698
0.0045511
0.00455523
0.00455935
0.00456348
0.00456761
0.00457174
0.00457588
0.00458001
0.00458415
0.00458829
0.00459243
0.00459657
0.00460072
0.00460487
0.00460902
0.00461316
0.00461732
0.00462147
0.00462563
0.00462979
0.00463394
0.00463811
0.00464227
0.00464644
0.0046506
0.00465477
0.00465894
0.00466311
0.00466729
0.00467147
0.00467564
0.00467982
0.004684
0.00468819
0.00469238
0.00469656
0.00470075
0.00470494
0.00470914
0.00471333
0.00471753
0.00472172
0.00472592
0.00473013
0.00473433
0.00473854
0.00474275
0.00474695
0.00475117
0.00475538
0.00475959
0.00476381
0.00476803
0.00477225
0.00477648
0.0047807
0.00478493
0.00478916
0.00479339
0.00479762
0.00480186
0.00480609
0.00481033
0.00481457
0.00481881
0.00482306
0.0048273
0.00483155
0.0048358
0.00484005
0.00484431
0.00484856
0.00485281
0.00485707
0.00486134
0.0048656
0.00486986
0.00487413
0.00487839
0.00488267
0.00488694
0.00489121
0.00489548
0.00489976
0.00490404
0.00490832
0.0049126
0.00491689
0.00492117
0.00492546
0.00492975
0.00493404
0.00493834
0.00494263
0.00494693
0.00495123
0.00495553
0.00495983
0.00496414
0.00496845
0.00497276
0.00497707
0.00498138
0.0049857
0.00499001
0.00499433
0.00499865
0.00500297
0.0050073
0.00501162
0.00501595
0.00502028
0.00502461
0.00502895
0.00503328
0.00503762
0.00504196
0.0050463
0.00505064
0.00505499
0.00505934
0.00506368
0.00506803
0.00507238
0.00507674
0.0050811
0.00508545
0.00508981
0.00509417
0.00509853
0.0051029
0.00510727
0.00511163
0.00511601
0.00512038
0.00512475
0.00512913
0.0051335
0.00513789
0.00514227
0.00514665
0.00515104
0.00515542
0.00515981
0.0051642
0.0051686
0.00517299
0.00517739
0.00518178
0.00518618
0.00519059
0.00519499
0.0051994
0.00520381
0.00520822
0.00521263
0.00521705
0.00522146
0.00522588
0.0052303
0.00523472
0.00523914
0.00524357
0.00524799
0.00525242
0.00525685
0.00526129
0.00526572
0.00527015
0.00527459
0.00527903
0.00528348
0.00528792
0.00529236
0.00529681
0.00530126
0.00530571
0.00531016
0.00531462
0.00531907
0.00532353
0.00532799
0.00533246
0.00533692
0.00534138
0.00534585
0.00535032
0.00535479
0.00535926
0.00536374
0.00536821
0.0053727
0.00537718
0.00538166
0.00538614
0.00539063
0.00539512
0.00539961
0.0054041
0.00540859
0.00541309
0.00541759
0.00542209
0.00542659
0.00543109
0.0054356
0.0054401
0.00544462
0.00544913
0.00545364
0.00545815
0.00546267
0.00546719
0.00547171
0.00547623
0.00548075
0.00548528
0.00548981
0.00549434
0.00549887
0.0055034
0.00550794
0.00551248
0.00551701
0.00552155
0.00552609
0.00553064
0.00553519
0.00553974
0.00554428
0.00554883
0.00555339
0.00555795
0.0055625
0.00556706
0.00557162
0.00557618
0.00558075
0.00558532
0.00558988
0.00559445
0.00559902
0.0056036
0.00560818
0.00561275
0.00561733
0.00562191
0.0056265
0.00563108
0.00563567
0.00564026
0.00564485
0.00564944
0.00565404
0.00565864
0.00566323
0.00566784
0.00567244
0.00567704
0.00568165
0.00568626
0.00569087
0.00569548
0.00570009
0.00570471
0.00570932
0.00571394
0.00571856
0.00572319
0.00572781
0.00573244
0.00573707
0.0057417
0.00574633
0.00575096
0.0057556
0.00576024
0.00576487
0.00576952
0.00577416
0.0057788
0.00578345
0.0057881
0.00579275
0.00579741
0.00580206
0.00580671
0.00581137
0.00581603
0.00582069
0.00582536
0.00583002
0.00583469
0.00583936
0.00584403
0.00584871
0.00585338
0.00585806
0.00586274
0.00586742
0.0058721
0.00587678
0.00588147
0.00588616
0.00589085
0.00589554
0.00590024
0.00590493
0.00590963
0.00591433
0.00591903
0.00592373
0.00592844
0.00593315
0.00593786
0.00594257
0.00594728
0.00595199
0.00595671
0.00596143
0.00596615
0.00597087
0.00597559
0.00598032
0.00598505
0.00598978
0.0059945
0.00599924
0.00600397
0.00600871
0.00601345
0.00601819
0.00602293
0.00602767
0.00603242
0.00603717
0.00604192
0.00604667
0.00605142
0.00605618
0.00606094
0.0060657
0.00607045
0.00607522
0.00607998
0.00608475
0.00608952
0.00609429
0.00609906
0.00610384
0.00610862
0.00611339
0.00611817
0.00612295
0.00612774
0.00613252
0.00613731
0.0061421
0.00614689
0.00615168
0.00615648
0.00616128
0.00616607
0.00617087
0.00617567
0.00618048
0.00618529
0.00619009