/*--------------------------------*- C++ -*----------------------------------*\
| =========                 |                                                 |
| \\      /  F ield         | OpenFOAM: The Open Source CFD Toolbox           |
|  \\    /   O peration     | Version:  2206                                  |
|   \\  /    A nd           | Website:  www.openfoam.com                      |
|    \\/     M anipulation  |                                                 |
\*---------------------------------------------------------------------------*/
FoamFile
{
    version     2.0;
    format      ascii;
    arch        "LSB;label=32;scalar=64";
    class       volVectorField;
    location    "280";
    object      U;
}
// * * * * * * * * * * * * * * * * * * * * * * * * * * * * * * * * * * * * * //

dimensions      [0 1 -1 0 0 0 0];

internalField   nonuniform List<vector> 
100000
(
(-4.84409e-12 6.40542e-06 -1.32381e-12)
(-4.90756e-12 1.18895e-05 5.7804e-14)
(-7.56549e-12 2.16948e-05 1.5501e-13)
(-1.42137e-11 3.22284e-05 1.53212e-13)
(-1.76562e-11 4.17859e-05 8.78444e-14)
(-1.65907e-11 4.4185e-05 7.19319e-14)
(-2.04266e-11 5.39575e-05 1.39735e-13)
(-2.58954e-11 6.46248e-05 1.46756e-13)
(-3.09037e-11 7.52752e-05 1.48085e-13)
(-3.54037e-11 8.49163e-05 8.27518e-14)
(-3.35603e-11 8.72511e-05 7.73654e-14)
(-3.78911e-11 9.69983e-05 1.41689e-13)
(-4.30891e-11 0.000107669 1.46892e-13)
(-4.8267e-11 0.000118329 1.46246e-13)
(-5.26916e-11 0.000127993 8.24987e-14)
(-5.07443e-11 0.000130316 7.77816e-14)
(-5.53201e-11 0.000140051 1.42814e-13)
(-6.0151e-11 0.000150722 1.46493e-13)
(-6.58328e-11 0.000161385 1.46212e-13)
(-6.95742e-11 0.00017106 8.12979e-14)
(-6.85052e-11 0.000173379 7.89668e-14)
(-7.1972e-11 0.000183107 1.42488e-13)
(-7.81792e-11 0.000193785 1.48086e-13)
(-8.22645e-11 0.000204536 1.49653e-13)
(-8.84993e-11 0.000215206 1.46455e-13)
(-9.19906e-11 0.000224888 8.2544e-14)
(-9.08585e-11 0.000227205 7.92321e-14)
(-9.46089e-11 0.000236928 1.44878e-13)
(-1.00285e-10 0.000247599 1.47823e-13)
(-1.05134e-10 0.000258264 1.46736e-13)
(-1.09763e-10 0.00026795 8.15762e-14)
(-1.07696e-10 0.000270266 7.98131e-14)
(-1.12224e-10 0.000279986 1.44418e-13)
(-1.17255e-10 0.000290657 1.47976e-13)
(-1.22633e-10 0.000301323 1.46133e-13)
(-1.2682e-10 0.000311011 8.15646e-14)
(-1.25123e-10 0.000313326 7.96726e-14)
(-1.29349e-10 0.000323044 1.44545e-13)
(-1.34628e-10 0.000333715 1.47707e-13)
(-1.39798e-10 0.000344381 1.45996e-13)
(-1.44153e-10 0.000354072 8.12975e-14)
(-1.42322e-10 0.000356386 7.97787e-14)
(-1.4666e-10 0.000366103 1.44467e-13)
(-1.51847e-10 0.000376773 1.47643e-13)
(-1.57089e-10 0.00038744 1.45773e-13)
(-1.61385e-10 0.000397132 8.11862e-14)
(-1.59602e-10 0.000399446 7.97819e-14)
(-1.63906e-10 0.000409161 1.44472e-13)
(-1.69115e-10 0.000419832 1.47536e-13)
(-1.74342e-10 0.000430498 1.45643e-13)
(-1.78642e-10 0.000440192 8.10543e-14)
(-1.76866e-10 0.000442506 7.98238e-14)
(-1.81157e-10 0.00045222 1.44438e-13)
(-1.86388e-10 0.00046289 1.47488e-13)
(-1.91581e-10 0.000473557 1.45497e-13)
(-1.95924e-10 0.000483251 8.09909e-14)
(-1.94094e-10 0.000485566 7.98076e-14)
(-1.98455e-10 0.000495279 1.44469e-13)
(-2.03599e-10 0.000505949 1.47377e-13)
(-2.08897e-10 0.000516616 1.45459e-13)
(-2.13111e-10 0.000526311 8.08369e-14)
(-2.11439e-10 0.000528625 7.99161e-14)
(-2.1561e-10 0.000538338 1.44348e-13)
(-2.20983e-10 0.000549008 1.47462e-13)
(-2.26004e-10 0.000559675 1.45211e-13)
(-2.30549e-10 0.000569371 8.09672e-14)
(-2.28481e-10 0.000571685 7.96936e-14)
(-2.33131e-10 0.000581397 1.44624e-13)
(-2.37927e-10 0.000592066 1.47078e-13)
(-2.43639e-10 0.000602734 1.4555e-13)
(-2.47354e-10 0.00061243 8.04161e-14)
(-2.46283e-10 0.000614744 8.03039e-14)
(-2.49738e-10 0.000624456 1.43936e-13)
(-2.55972e-10 0.000635132 1.48576e-13)
(-2.60039e-10 0.000645883 1.49085e-13)
(-2.66279e-10 0.000656557 1.45143e-13)
(-2.69747e-10 0.000666254 8.14323e-14)
(-2.68649e-10 0.000668568 7.97675e-14)
(-2.72378e-10 0.000678279 1.45178e-13)
(-2.78073e-10 0.000688949 1.4745e-13)
(-2.82895e-10 0.000699616 1.45791e-13)
(-2.87536e-10 0.000709314 8.07378e-14)
(-2.85465e-10 0.000711628 8.02863e-14)
(-2.90003e-10 0.000721338 1.44709e-13)
(-2.95026e-10 0.000732008 1.47758e-13)
(-3.00405e-10 0.000742675 1.45417e-13)
(-3.04583e-10 0.000752373 8.09358e-14)
(-3.02899e-10 0.000754687 8.00739e-14)
(-3.07116e-10 0.000764397 1.44851e-13)
(-3.12406e-10 0.000775066 1.47568e-13)
(-3.17561e-10 0.000785734 1.45468e-13)
(-3.21925e-10 0.000795432 8.0795e-14)
(-3.20085e-10 0.000797746 8.01462e-14)
(-3.24436e-10 0.000807456 1.44763e-13)
(-3.2961e-10 0.000818125 1.47574e-13)
(-3.34865e-10 0.000828793 1.45371e-13)
(-3.3914e-10 0.000838492 8.0782e-14)
(-3.37382e-10 0.000840806 8.01228e-14)
(-3.41657e-10 0.000850515 1.44749e-13)
(-3.46905e-10 0.000861184 1.47533e-13)
(-3.52084e-10 0.000871852 1.45312e-13)
(-3.56437e-10 0.000881551 8.07603e-14)
(-3.54597e-10 0.000883865 8.00944e-14)
(-3.58964e-10 0.000893574 1.44762e-13)
(-3.64107e-10 0.000904243 1.47452e-13)
(-3.69406e-10 0.000914911 1.45323e-13)
(-3.73618e-10 0.00092461 8.06538e-14)
(-3.71945e-10 0.000926924 8.0181e-14)
(-3.76116e-10 0.000936633 1.44632e-13)
(-3.81492e-10 0.000947302 1.47555e-13)
(-3.86512e-10 0.00095797 1.45115e-13)
(-3.91057e-10 0.00096767 8.08217e-14)
(-3.88986e-10 0.000969983 7.99382e-14)
(-3.93635e-10 0.000979692 1.44903e-13)
(-3.98437e-10 0.000990361 1.47179e-13)
(-4.04145e-10 0.00100103 1.45493e-13)
(-4.07863e-10 0.00101073 8.02922e-14)
(-4.06786e-10 0.00101304 8.05419e-14)
(-4.10243e-10 0.00102275 1.44195e-13)
(-4.16479e-10 0.00103343 1.48696e-13)
(-4.20546e-10 0.00104418 1.49009e-13)
(-4.26785e-10 0.00105485 1.44939e-13)
(-4.30251e-10 0.00106455 8.12367e-14)
(-4.29156e-10 0.00106687 7.98925e-14)
(-4.32883e-10 0.00107657 1.45262e-13)
(-4.38581e-10 0.00108724 1.47406e-13)
(-4.434e-10 0.00109791 1.45617e-13)
(-4.48041e-10 0.00110761 8.05771e-14)
(-4.45971e-10 0.00110993 8.04041e-14)
(-4.50509e-10 0.00111963 1.44805e-13)
(-4.55534e-10 0.0011303 1.47733e-13)
(-4.6091e-10 0.00114097 1.45277e-13)
(-4.65089e-10 0.00115067 8.0799e-14)
(-4.63403e-10 0.00115298 8.01885e-14)
(-4.67623e-10 0.00116269 1.44955e-13)
(-4.7291e-10 0.00117336 1.47558e-13)
(-4.78069e-10 0.00118403 1.45358e-13)
(-4.82426e-10 0.00119373 8.06732e-14)
(-4.80595e-10 0.00119604 8.02652e-14)
(-4.84935e-10 0.00120575 1.44863e-13)
(-4.90124e-10 0.00121642 1.47589e-13)
(-4.95361e-10 0.00122709 1.45272e-13)
(-4.99656e-10 0.00123679 8.06939e-14)
(-4.97874e-10 0.0012391 8.02194e-14)
(-5.02177e-10 0.00124881 1.44877e-13)
(-5.07392e-10 0.00125948 1.47531e-13)
(-5.12613e-10 0.00127015 1.45268e-13)
(-5.16914e-10 0.00127985 8.06435e-14)
(-5.15135e-10 0.00128216 8.02412e-14)
(-5.19428e-10 0.00129187 1.4483e-13)
(-5.24662e-10 0.00130254 1.47537e-13)
(-5.29853e-10 0.00131321 1.45202e-13)
(-5.34195e-10 0.00132291 8.06618e-14)
(-5.32363e-10 0.00132522 8.01907e-14)
(-5.36723e-10 0.00133493 1.44864e-13)
(-5.41873e-10 0.0013456 1.47453e-13)
(-5.47166e-10 0.00135627 1.45244e-13)
(-5.51383e-10 0.00136597 8.05587e-14)
(-5.49705e-10 0.00136828 8.02848e-14)
(-5.5388e-10 0.00137799 1.44729e-13)
(-5.59254e-10 0.00138866 1.47574e-13)
(-5.64276e-10 0.00139933 1.45046e-13)
(-5.68818e-10 0.00140903 8.07452e-14)
(-5.66749e-10 0.00141134 8.00342e-14)
(-5.71396e-10 0.00142105 1.45008e-13)
(-5.76201e-10 0.00143172 1.472e-13)
(-5.81907e-10 0.00144238 1.45444e-13)
(-5.85627e-10 0.00145209 8.02206e-14)
(-5.84546e-10 0.0014544 8.06424e-14)
(-5.88006e-10 0.00146411 1.44293e-13)
(-5.94241e-10 0.00147478 1.4873e-13)
(-5.98308e-10 0.00148553 1.48948e-13)
(-6.04547e-10 0.00149621 1.44819e-13)
(-6.08011e-10 0.00150591 8.11277e-14)
(-6.06919e-10 0.00150822 7.9943e-14)
(-6.10645e-10 0.00151793 1.4528e-13)
(-6.16344e-10 0.0015286 1.47363e-13)
(-6.2116e-10 0.00153927 1.45506e-13)
(-6.25804e-10 0.00154897 8.04855e-14)
(-6.23733e-10 0.00155128 8.04504e-14)
(-6.28273e-10 0.00156099 1.44834e-13)
(-6.33295e-10 0.00157166 1.47695e-13)
(-6.38673e-10 0.00158233 1.45185e-13)
(-6.42848e-10 0.00159203 8.07124e-14)
(-6.41167e-10 0.00159434 8.02413e-14)
(-6.45383e-10 0.00160405 1.44984e-13)
(-6.50675e-10 0.00161472 1.47537e-13)
(-6.55827e-10 0.00162539 1.45272e-13)
(-6.60192e-10 0.00163509 8.06043e-14)
(-6.58352e-10 0.0016374 8.03086e-14)
(-6.62703e-10 0.00164711 1.44908e-13)
(-6.67879e-10 0.00165778 1.47562e-13)
(-6.73132e-10 0.00166844 1.45213e-13)
(-6.77407e-10 0.00167815 8.0614e-14)
(-6.75649e-10 0.00168046 8.02862e-14)
(-6.79924e-10 0.00169017 1.449e-13)
(-6.85173e-10 0.00170084 1.47544e-13)
(-6.90351e-10 0.0017115 1.45181e-13)
(-6.94704e-10 0.00172121 8.06172e-14)
(-6.92864e-10 0.00172352 8.02531e-14)
(-6.9723e-10 0.00173323 1.44922e-13)
(-7.02376e-10 0.00174389 1.47477e-13)
(-7.07673e-10 0.00175456 1.4522e-13)
(-7.11886e-10 0.00176426 8.05276e-14)
(-7.1021e-10 0.00176658 8.03403e-14)
(-7.14382e-10 0.00177628 1.44795e-13)
(-7.19759e-10 0.00178695 1.47597e-13)
(-7.2478e-10 0.00179762 1.45033e-13)
(-7.29323e-10 0.00180732 8.07158e-14)
(-7.27252e-10 0.00180964 8.00919e-14)
(-7.31899e-10 0.00181934 1.45074e-13)
(-7.36705e-10 0.00183001 1.47229e-13)
(-7.42411e-10 0.00184068 1.45435e-13)
(-7.46131e-10 0.00185038 8.01958e-14)
(-7.4505e-10 0.0018527 8.07001e-14)
(-7.48509e-10 0.0018624 1.4436e-13)
(-7.54746e-10 0.00187308 1.48763e-13)
(-7.58813e-10 0.00188383 1.48935e-13)
(-7.65051e-10 0.0018945 1.44773e-13)
(-7.68515e-10 0.00190421 8.10831e-14)
(-7.67424e-10 0.00190652 7.99761e-14)
(-7.71149e-10 0.00191623 1.45307e-13)
(-7.76849e-10 0.0019269 1.47356e-13)
(-7.81664e-10 0.00193756 1.45467e-13)
(-7.86307e-10 0.00194727 8.04457e-14)
(-7.84237e-10 0.00194958 8.04848e-14)
(-7.88776e-10 0.00195929 1.44863e-13)
(-7.938e-10 0.00196995 1.47695e-13)
(-7.99176e-10 0.00198062 1.4515e-13)
(-8.03354e-10 0.00199032 8.06793e-14)
(-8.0167e-10 0.00199264 8.02733e-14)
(-8.05889e-10 0.00200234 1.45019e-13)
(-8.11177e-10 0.00201301 1.47535e-13)
(-8.16334e-10 0.00202368 1.45249e-13)
(-8.20692e-10 0.00203338 8.05683e-14)
(-8.18861e-10 0.0020357 8.03496e-14)
(-8.23202e-10 0.0020454 1.44936e-13)
(-8.2839e-10 0.00205607 1.47577e-13)
(-8.33627e-10 0.00206674 1.4518e-13)
(-8.37921e-10 0.00207644 8.05992e-14)
(-8.3614e-10 0.00207876 8.03065e-14)
(-8.40443e-10 0.00208846 1.44956e-13)
(-8.45659e-10 0.00209913 1.47531e-13)
(-8.50878e-10 0.0021098 1.4519e-13)
(-8.5518e-10 0.0021195 8.0561e-14)
(-8.53401e-10 0.00212182 8.03276e-14)
(-8.57694e-10 0.00213152 1.44915e-13)
(-8.62928e-10 0.00214219 1.47546e-13)
(-8.68119e-10 0.00215286 1.4514e-13)
(-8.7246e-10 0.00216256 8.05874e-14)
(-8.70629e-10 0.00216487 8.02793e-14)
(-8.74988e-10 0.00217458 1.44953e-13)
(-8.8014e-10 0.00218525 1.47473e-13)
(-8.85432e-10 0.00219592 1.45192e-13)
(-8.89649e-10 0.00220562 8.04944e-14)
(-8.8797e-10 0.00220793 8.03726e-14)
(-8.92145e-10 0.00221764 1.44823e-13)
(-8.9752e-10 0.00222831 1.476e-13)
(-9.02542e-10 0.00223898 1.45007e-13)
(-9.07084e-10 0.00224868 8.0688e-14)
(-9.05014e-10 0.00225099 8.0123e-14)
(-9.0966e-10 0.0022607 1.45105e-13)
(-9.14468e-10 0.00227137 1.47234e-13)
(-9.20172e-10 0.00228204 1.45415e-13)
(-9.23893e-10 0.00229174 8.017e-14)
(-9.22811e-10 0.00229405 8.07327e-14)
(-9.26271e-10 0.00230376 1.44392e-13)
(-9.32507e-10 0.00231443 1.48771e-13)
(-9.36574e-10 0.00232519 1.48911e-13)
(-9.42812e-10 0.00233586 1.44727e-13)
(-9.46276e-10 0.00234556 8.10432e-14)
(-9.45186e-10 0.00234788 7.9992e-14)
(-9.48911e-10 0.00235758 1.45311e-13)
(-9.54611e-10 0.00236825 1.47337e-13)
(-9.59425e-10 0.00237892 1.45424e-13)
(-9.64069e-10 0.00238862 8.041e-14)
(-9.61998e-10 0.00239094 8.05007e-14)
(-9.66539e-10 0.00240064 1.44871e-13)
(-9.71561e-10 0.00241131 1.47678e-13)
(-9.76938e-10 0.00242198 1.45113e-13)
(-9.81113e-10 0.00243168 8.06448e-14)
(-9.79433e-10 0.00243399 8.02923e-14)
(-9.83649e-10 0.0024437 1.45027e-13)
(-9.88942e-10 0.00245437 1.47525e-13)
(-9.94092e-10 0.00246504 1.45211e-13)
(-9.98458e-10 0.00247474 8.05423e-14)
(-9.96617e-10 0.00247705 8.03623e-14)
(-1.00097e-09 0.00248676 1.44955e-13)
(-1.00614e-09 0.00249743 1.4756e-13)
(-1.0114e-09 0.0025081 1.4516e-13)
(-1.01567e-09 0.0025178 8.05594e-14)
(-1.01391e-09 0.00252011 8.03399e-14)
(-1.01819e-09 0.00252982 1.44952e-13)
(-1.02344e-09 0.00254049 1.47546e-13)
(-1.02862e-09 0.00255116 1.45137e-13)
(-1.03297e-09 0.00256086 8.05671e-14)
(-1.03113e-09 0.00256317 8.03091e-14)
(-1.0355e-09 0.00257288 1.44977e-13)
(-1.04064e-09 0.00258355 1.47487e-13)
(-1.04594e-09 0.00259421 1.45183e-13)
(-1.05015e-09 0.00260392 8.04839e-14)
(-1.04848e-09 0.00260623 8.03963e-14)
(-1.05265e-09 0.00261594 1.44854e-13)
(-1.05802e-09 0.00262661 1.47612e-13)
(-1.06305e-09 0.00263727 1.45004e-13)
(-1.06759e-09 0.00264698 8.06763e-14)
(-1.06552e-09 0.00264929 8.01494e-14)
(-1.07016e-09 0.002659 1.45135e-13)
(-1.07497e-09 0.00266966 1.47249e-13)
(-1.08068e-09 0.00268033 1.45413e-13)
(-1.0844e-09 0.00269004 8.01606e-14)
(-1.08331e-09 0.00269235 8.0759e-14)
(-1.08677e-09 0.00270205 1.44424e-13)
(-1.09301e-09 0.00271273 1.48788e-13)
(-1.09708e-09 0.00272348 1.48908e-13)
(-1.10332e-09 0.00273416 1.44708e-13)
(-1.10678e-09 0.00274386 8.10247e-14)
(-1.10569e-09 0.00274617 8.00079e-14)
(-1.10941e-09 0.00275588 1.45325e-13)
(-1.11512e-09 0.00276655 1.47336e-13)
(-1.11993e-09 0.00277722 1.45408e-13)
(-1.12457e-09 0.00278692 8.03928e-14)
(-1.1225e-09 0.00278923 8.05179e-14)
(-1.12704e-09 0.00279894 1.44885e-13)
(-1.13207e-09 0.00280961 1.4768e-13)
(-1.13744e-09 0.00282027 1.45098e-13)
(-1.14162e-09 0.00282998 8.06317e-14)
(-1.13994e-09 0.00283229 8.03071e-14)
(-1.14415e-09 0.002842 1.45046e-13)
(-1.14944e-09 0.00285267 1.47525e-13)
(-1.1546e-09 0.00286333 1.45204e-13)
(-1.15896e-09 0.00287304 8.05241e-14)
(-1.15713e-09 0.00287535 8.03856e-14)
(-1.16147e-09 0.00288506 1.44966e-13)
(-1.16666e-09 0.00289572 1.47573e-13)
(-1.17189e-09 0.00290639 1.45141e-13)
(-1.17619e-09 0.0029161 8.056e-14)
(-1.17441e-09 0.00291841 8.03427e-14)
(-1.17871e-09 0.00292811 1.4499e-13)
(-1.18392e-09 0.00293878 1.47531e-13)
(-1.18914e-09 0.00294945 1.45157e-13)
(-1.19345e-09 0.00295915 8.05246e-14)
(-1.19167e-09 0.00296147 8.0366e-14)
(-1.19596e-09 0.00297117 1.44951e-13)
(-1.20119e-09 0.00298184 1.47551e-13)
(-1.20638e-09 0.00299251 1.45111e-13)
(-1.21073e-09 0.00300221 8.05555e-14)
(-1.20889e-09 0.00300453 8.03177e-14)
(-1.21325e-09 0.00301423 1.44993e-13)
(-1.21841e-09 0.0030249 1.47481e-13)
(-1.2237e-09 0.00303557 1.4517e-13)
(-1.22791e-09 0.00304527 8.04649e-14)
(-1.22624e-09 0.00304759 8.04129e-14)
(-1.23041e-09 0.00305729 1.44865e-13)
(-1.23579e-09 0.00306796 1.47613e-13)
(-1.24081e-09 0.00307863 1.44988e-13)
(-1.24535e-09 0.00308833 8.06628e-14)
(-1.24328e-09 0.00309065 8.01629e-14)
(-1.24793e-09 0.00310035 1.45151e-13)
(-1.25273e-09 0.00311102 1.47249e-13)
(-1.25844e-09 0.00312169 1.45402e-13)
(-1.26216e-09 0.00313139 8.01459e-14)
(-1.26108e-09 0.0031337 8.07754e-14)
(-1.26454e-09 0.00314341 1.44438e-13)
(-1.27077e-09 0.00315409 1.48791e-13)
(-1.27484e-09 0.00316484 1.48893e-13)
(-1.28108e-09 0.00317551 1.44684e-13)
(-1.28454e-09 0.00318521 8.10026e-14)
(-1.28345e-09 0.00318753 8.0016e-14)
(-1.28718e-09 0.00319723 1.45325e-13)
(-1.29288e-09 0.0032079 1.47325e-13)
(-1.29769e-09 0.00321857 1.45384e-13)
(-1.30233e-09 0.00322827 8.03746e-14)
(-1.30026e-09 0.00323059 8.05242e-14)
(-1.3048e-09 0.00324029 1.44889e-13)
(-1.30983e-09 0.00325096 1.47669e-13)
(-1.3152e-09 0.00326163 1.45078e-13)
(-1.31938e-09 0.00327133 8.06113e-14)
(-1.3177e-09 0.00327365 8.0318e-14)
(-1.32191e-09 0.00328335 1.45047e-13)
(-1.32721e-09 0.00329402 1.47521e-13)
(-1.33236e-09 0.00330469 1.4518e-13)
(-1.33672e-09 0.00331439 8.05126e-14)
(-1.33488e-09 0.00331671 8.03881e-14)
(-1.33923e-09 0.00332641 1.44978e-13)
(-1.34441e-09 0.00333708 1.47558e-13)
(-1.34966e-09 0.00334775 1.45134e-13)
(-1.35394e-09 0.00335745 8.05315e-14)
(-1.35218e-09 0.00335976 8.03676e-14)
(-1.35645e-09 0.00336947 1.44977e-13)
(-1.3617e-09 0.00338014 1.47548e-13)
(-1.36688e-09 0.00339081 1.45115e-13)
(-1.37123e-09 0.00340051 8.05426e-14)
(-1.36939e-09 0.00340282 8.03368e-14)
(-1.37376e-09 0.00341253 1.45005e-13)
(-1.37891e-09 0.0034232 1.47491e-13)
(-1.3842e-09 0.00343387 1.45165e-13)
(-1.38842e-09 0.00344357 8.04609e-14)
(-1.38674e-09 0.00344588 8.04258e-14)
(-1.39091e-09 0.00345559 1.44884e-13)
(-1.39629e-09 0.00346626 1.4762e-13)
(-1.40131e-09 0.00347693 1.44988e-13)
(-1.40585e-09 0.00348663 8.06566e-14)
(-1.40378e-09 0.00348894 8.01785e-14)
(-1.40843e-09 0.00349865 1.45168e-13)
(-1.41324e-09 0.00350932 1.47258e-13)
(-1.41894e-09 0.00351998 1.45402e-13)
(-1.42266e-09 0.00352969 8.01415e-14)
(-1.42158e-09 0.003532 8.07907e-14)
(-1.42504e-09 0.00354171 1.44456e-13)
(-1.43128e-09 0.00355238 1.48802e-13)
(-1.43534e-09 0.00356313 1.48892e-13)
(-1.44158e-09 0.00357381 1.44675e-13)
(-1.44504e-09 0.00358351 8.0993e-14)
(-1.44396e-09 0.00358583 8.00255e-14)
(-1.44768e-09 0.00359553 1.45334e-13)
(-1.45338e-09 0.0036062 1.47325e-13)
(-1.45819e-09 0.00361687 1.45376e-13)
(-1.46284e-09 0.00362657 8.03651e-14)
(-1.46077e-09 0.00362888 8.0535e-14)
(-1.46531e-09 0.00363859 1.44898e-13)
(-1.47033e-09 0.00364926 1.47671e-13)
(-1.47571e-09 0.00365993 1.4507e-13)
(-1.47988e-09 0.00366963 8.06052e-14)
(-1.4782e-09 0.00367194 8.03261e-14)
(-1.48242e-09 0.00368165 1.4506e-13)
(-1.48771e-09 0.00369232 1.4752e-13)
(-1.49286e-09 0.00370299 1.45179e-13)
(-1.49722e-09 0.00371269 8.05006e-14)
(-1.49539e-09 0.003715 8.04047e-14)
(-1.49973e-09 0.00372471 1.44983e-13)
(-1.50492e-09 0.00373538 1.4757e-13)
(-1.51016e-09 0.00374605 1.4512e-13)
(-1.51445e-09 0.00375575 8.05376e-14)
(-1.51267e-09 0.00375806 8.03636e-14)
(-1.51697e-09 0.00376777 1.45008e-13)
(-1.52219e-09 0.00377844 1.47531e-13)
(-1.52741e-09 0.0037891 1.45138e-13)
(-1.53171e-09 0.00379881 8.0505e-14)
(-1.52993e-09 0.00380112 8.03867e-14)
(-1.53422e-09 0.00381083 1.44972e-13)
(-1.53946e-09 0.00382149 1.47553e-13)
(-1.54465e-09 0.00383216 1.45096e-13)
(-1.54899e-09 0.00384187 8.05368e-14)
(-1.54716e-09 0.00384418 8.03401e-14)
(-1.55152e-09 0.00385389 1.45015e-13)
(-1.55667e-09 0.00386455 1.47486e-13)
(-1.56196e-09 0.00387522 1.45157e-13)
(-1.56618e-09 0.00388493 8.04489e-14)
(-1.5645e-09 0.00388724 8.0435e-14)
(-1.56868e-09 0.00389694 1.44889e-13)
(-1.57405e-09 0.00390761 1.47619e-13)
(-1.57907e-09 0.00391828 1.44978e-13)
(-1.58361e-09 0.00392798 8.06476e-14)
(-1.58154e-09 0.0039303 8.01866e-14)
(-1.58619e-09 0.00394 1.45176e-13)
(-1.591e-09 0.00395067 1.47258e-13)
(-1.5967e-09 0.00396134 1.45394e-13)
(-1.60042e-09 0.00397104 8.01327e-14)
(-1.59934e-09 0.00397336 8.07994e-14)
(-1.6028e-09 0.00398306 1.44464e-13)
(-1.60904e-09 0.00399374 1.48802e-13)
(-1.61311e-09 0.00400449 1.48883e-13)
(-1.61934e-09 0.00401516 1.44658e-13)
(-1.62281e-09 0.00402487 8.09797e-14)
(-1.62172e-09 0.00402718 8.00293e-14)
(-1.62544e-09 0.00403689 1.45334e-13)
(-1.63114e-09 0.00404756 1.47317e-13)
(-1.63595e-09 0.00405822 1.45361e-13)
(-1.6406e-09 0.00406793 8.03531e-14)
(-1.63853e-09 0.00407024 8.05388e-14)
(-1.64307e-09 0.00407995 1.44899e-13)
(-1.64809e-09 0.00409061 1.47664e-13)
(-1.65347e-09 0.00410128 1.45057e-13)
(-1.65764e-09 0.00411099 8.05922e-14)
(-1.65596e-09 0.0041133 8.03325e-14)
(-1.66018e-09 0.004123 1.45059e-13)
(-1.66547e-09 0.00413367 1.47517e-13)
(-1.67062e-09 0.00414434 1.45163e-13)
(-1.67499e-09 0.00415404 8.04941e-14)
(-1.67315e-09 0.00415636 8.04043e-14)
(-1.6775e-09 0.00416606 1.44992e-13)
(-1.68268e-09 0.00417673 1.47557e-13)
(-1.68793e-09 0.0041874 1.45118e-13)
(-1.6922e-09 0.0041971 8.05155e-14)
(-1.69044e-09 0.00419942 8.03835e-14)
(-1.69472e-09 0.00420912 1.44993e-13)
(-1.69997e-09 0.00421979 1.47549e-13)
(-1.70515e-09 0.00423046 1.45102e-13)
(-1.7095e-09 0.00424016 8.0527e-14)
(-1.70766e-09 0.00424248 8.03544e-14)
(-1.71203e-09 0.00425218 1.45022e-13)
(-1.71717e-09 0.00426285 1.47494e-13)
(-1.72247e-09 0.00427352 1.45153e-13)
(-1.72668e-09 0.00428322 8.04477e-14)
(-1.72501e-09 0.00428554 8.04429e-14)
(-1.72918e-09 0.00429524 1.44902e-13)
(-1.73456e-09 0.00430591 1.47624e-13)
(-1.73958e-09 0.00431658 1.44979e-13)
(-1.74412e-09 0.00432628 8.06438e-14)
(-1.74205e-09 0.00432859 8.01972e-14)
(-1.74669e-09 0.0043383 1.45188e-13)
(-1.7515e-09 0.00434897 1.47265e-13)
(-1.75721e-09 0.00435964 1.45395e-13)
(-1.76093e-09 0.00436934 8.01305e-14)
(-1.75984e-09 0.00437165 8.08094e-14)
(-1.76331e-09 0.00438136 1.44477e-13)
(-1.76954e-09 0.00439203 1.4881e-13)
(-1.77361e-09 0.00440279 1.48884e-13)
(-1.77985e-09 0.00441346 1.44653e-13)
(-1.78331e-09 0.00442316 8.09741e-14)
(-1.78222e-09 0.00442548 8.00356e-14)
(-1.78594e-09 0.00443518 1.45341e-13)
(-1.79165e-09 0.00444585 1.47318e-13)
(-1.79646e-09 0.00445652 1.45357e-13)
(-1.8011e-09 0.00446622 8.03471e-14)
(-1.79903e-09 0.00446854 8.05465e-14)
(-1.80357e-09 0.00447824 1.44905e-13)
(-1.8086e-09 0.00448891 1.47667e-13)
(-1.81397e-09 0.00449958 1.45052e-13)
(-1.81815e-09 0.00450928 8.05894e-14)
(-1.81647e-09 0.0045116 8.03373e-14)
(-1.82068e-09 0.0045213 1.4507e-13)
(-1.82597e-09 0.00453197 1.47517e-13)
(-1.83113e-09 0.00454264 1.45164e-13)
(-1.83549e-09 0.00455234 8.0485e-14)
(-1.83366e-09 0.00455465 8.04175e-14)
(-1.838e-09 0.00456436 1.44993e-13)
(-1.84319e-09 0.00457503 1.47569e-13)
(-1.84842e-09 0.0045857 1.45106e-13)
(-1.85272e-09 0.0045954 8.05242e-14)
(-1.85094e-09 0.00459771 8.0376e-14)
(-1.85524e-09 0.00460742 1.4502e-13)
(-1.86046e-09 0.00461809 1.47531e-13)
(-1.86567e-09 0.00462876 1.45127e-13)
(-1.86998e-09 0.00463846 8.04918e-14)
(-1.8682e-09 0.00464077 8.04007e-14)
(-1.87249e-09 0.00465048 1.44985e-13)
(-1.87772e-09 0.00466115 1.47555e-13)
(-1.88291e-09 0.00467182 1.45086e-13)
(-1.88726e-09 0.00468152 8.05257e-14)
(-1.88542e-09 0.00468383 8.03537e-14)
(-1.88978e-09 0.00469354 1.45029e-13)
(-1.89494e-09 0.00470421 1.47488e-13)
(-1.90023e-09 0.00471487 1.45149e-13)
(-1.90445e-09 0.00472458 8.04378e-14)
(-1.90276e-09 0.00472689 8.04502e-14)
(-1.90694e-09 0.0047366 1.44904e-13)
(-1.91232e-09 0.00474727 1.47624e-13)
(-1.91734e-09 0.00475793 1.44971e-13)
(-1.92188e-09 0.00476764 8.06386e-14)
(-1.91981e-09 0.00476995 8.02011e-14)
(-1.92446e-09 0.00477966 1.45193e-13)
(-1.92926e-09 0.00479032 1.47263e-13)
(-1.93497e-09 0.00480099 1.45389e-13)
(-1.93869e-09 0.0048107 8.01233e-14)
(-1.93761e-09 0.00481301 8.08159e-14)
(-1.94107e-09 0.00482271 1.44481e-13)
(-1.9473e-09 0.00483339 1.4881e-13)
(-1.95137e-09 0.00484414 1.48876e-13)
(-1.95761e-09 0.00485482 1.44643e-13)
(-1.96107e-09 0.00486452 8.09639e-14)
(-1.95998e-09 0.00486683 8.00388e-14)
(-1.96371e-09 0.00487654 1.45339e-13)
(-1.96941e-09 0.00488721 1.47313e-13)
(-1.97422e-09 0.00489788 1.45345e-13)
(-1.97886e-09 0.00490758 8.03398e-14)
(-1.97679e-09 0.00490989 8.05475e-14)
(-1.98133e-09 0.0049196 1.44907e-13)
(-1.98636e-09 0.00493027 1.4766e-13)
(-1.99173e-09 0.00494093 1.45045e-13)
(-1.99591e-09 0.00495064 8.05788e-14)
(-1.99423e-09 0.00495295 8.03429e-14)
(-1.99844e-09 0.00496266 1.45067e-13)
(-2.00374e-09 0.00497333 1.47516e-13)
(-2.00889e-09 0.00498399 1.4515e-13)
(-2.01325e-09 0.0049937 8.04827e-14)
(-2.01141e-09 0.00499601 8.04142e-14)
(-2.01576e-09 0.00500572 1.45001e-13)
(-2.02094e-09 0.00501638 1.47556e-13)
(-2.02619e-09 0.00502705 1.45108e-13)
(-2.03047e-09 0.00503676 8.0504e-14)
(-2.02871e-09 0.00503907 8.03949e-14)
(-2.03298e-09 0.00504877 1.45003e-13)
(-2.03824e-09 0.00505944 1.4755e-13)
(-2.04341e-09 0.00507011 1.45092e-13)
(-2.04776e-09 0.00507982 8.05175e-14)
(-2.04592e-09 0.00508213 8.03652e-14)
(-2.05029e-09 0.00509183 1.45034e-13)
(-2.05544e-09 0.0051025 1.47496e-13)
(-2.06073e-09 0.00511317 1.45146e-13)
(-2.06495e-09 0.00512287 8.04379e-14)
(-2.06327e-09 0.00512519 8.04554e-14)
(-2.06744e-09 0.00513489 1.44914e-13)
(-2.07282e-09 0.00514556 1.47628e-13)
(-2.07784e-09 0.00515623 1.44972e-13)
(-2.08238e-09 0.00516593 8.0636e-14)
(-2.08031e-09 0.00516825 8.02089e-14)
(-2.08496e-09 0.00517795 1.45202e-13)
(-2.08977e-09 0.00518862 1.47269e-13)
(-2.09547e-09 0.00519929 1.4539e-13)
(-2.09919e-09 0.00520899 8.01221e-14)
(-2.09811e-09 0.00521131 8.08231e-14)
(-2.10157e-09 0.00522101 1.44491e-13)
(-2.10781e-09 0.00523169 1.48816e-13)
(-2.11187e-09 0.00524244 1.48877e-13)
(-2.11811e-09 0.00525311 1.44639e-13)
(-2.12157e-09 0.00526282 8.09604e-14)
(-2.12049e-09 0.00526513 8.00434e-14)
(-2.12421e-09 0.00527484 1.45344e-13)
(-2.12991e-09 0.0052855 1.47314e-13)
(-2.13472e-09 0.00529617 1.45343e-13)
(-2.13937e-09 0.00530588 8.03357e-14)
(-2.1373e-09 0.00530819 8.05534e-14)
(-2.14184e-09 0.00531789 1.44911e-13)
(-2.14686e-09 0.00532856 1.47663e-13)
(-2.15224e-09 0.00533923 1.45041e-13)
(-2.15641e-09 0.00534893 8.05776e-14)
(-2.15473e-09 0.00535125 8.03459e-14)
(-2.15895e-09 0.00536095 1.45076e-13)
(-2.16424e-09 0.00537162 1.47515e-13)
(-2.16939e-09 0.00538229 1.45153e-13)
(-2.17375e-09 0.00539199 8.04752e-14)
(-2.17192e-09 0.00539431 8.04255e-14)
(-2.17626e-09 0.00540401 1.45001e-13)
(-2.18145e-09 0.00541468 1.47567e-13)
(-2.18669e-09 0.00542535 1.45097e-13)
(-2.19098e-09 0.00543505 8.0514e-14)
(-2.1892e-09 0.00543737 8.03855e-14)
(-2.1935e-09 0.00544707 1.45028e-13)
(-2.19872e-09 0.00545774 1.47531e-13)
(-2.20394e-09 0.00546841 1.45118e-13)
(-2.20824e-09 0.00547811 8.04835e-14)
(-2.20646e-09 0.00548043 8.04095e-14)
(-2.21075e-09 0.00549013 1.44995e-13)
(-2.21599e-09 0.0055008 1.47555e-13)
(-2.22118e-09 0.00551147 1.45079e-13)
(-2.22552e-09 0.00552117 8.0517e-14)
(-2.22369e-09 0.00552348 8.03641e-14)
(-2.22805e-09 0.00553319 1.45039e-13)
(-2.2332e-09 0.00554386 1.47491e-13)
(-2.23849e-09 0.00555453 1.45142e-13)
(-2.24271e-09 0.00556423 8.0431e-14)
(-2.24103e-09 0.00556654 8.04598e-14)
(-2.24521e-09 0.00557625 1.44916e-13)
(-2.25058e-09 0.00558692 1.47627e-13)
(-2.2556e-09 0.00559759 1.44967e-13)
(-2.26014e-09 0.00560729 8.06313e-14)
(-2.25807e-09 0.0056096 8.02122e-14)
(-2.26272e-09 0.00561931 1.45205e-13)
(-2.26753e-09 0.00562998 1.47267e-13)
(-2.27323e-09 0.00564065 1.45385e-13)
(-2.27696e-09 0.00565035 8.01176e-14)
(-2.27587e-09 0.00565266 8.08265e-14)
(-2.27933e-09 0.00566237 1.44494e-13)
(-2.28557e-09 0.00567304 1.48815e-13)
(-2.28964e-09 0.00568379 1.48872e-13)
(-2.29587e-09 0.00569447 1.4463e-13)
(-2.29934e-09 0.00570417 8.09537e-14)
(-2.29825e-09 0.00570649 8.00446e-14)
(-2.30197e-09 0.00571619 1.45343e-13)
(-2.30767e-09 0.00572686 1.47309e-13)
(-2.31248e-09 0.00573753 1.45335e-13)
(-2.31713e-09 0.00574723 8.03294e-14)
(-2.31506e-09 0.00574954 8.05547e-14)
(-2.3196e-09 0.00575925 1.44911e-13)
(-2.32462e-09 0.00576992 1.47658e-13)
(-2.33e-09 0.00578059 1.45034e-13)
(-2.33417e-09 0.00579029 8.05703e-14)
(-2.33249e-09 0.0057926 8.03493e-14)
(-2.33671e-09 0.00580231 1.45073e-13)
(-2.342e-09 0.00581298 1.47514e-13)
(-2.34715e-09 0.00582365 1.45142e-13)
(-2.35152e-09 0.00583335 8.04736e-14)
(-2.34968e-09 0.00583566 8.04222e-14)
(-2.35403e-09 0.00584537 1.45007e-13)
(-2.35921e-09 0.00585604 1.47556e-13)
(-2.36446e-09 0.00586671 1.451e-13)
(-2.36873e-09 0.00587641 8.04967e-14)
(-2.36698e-09 0.00587872 8.04021e-14)
(-2.37125e-09 0.00588843 1.45011e-13)
(-2.3765e-09 0.0058991 1.4755e-13)
(-2.38168e-09 0.00590976 1.45086e-13)
(-2.38603e-09 0.00591947 8.05096e-14)
(-2.38419e-09 0.00592178 8.0374e-14)
(-2.38856e-09 0.00593149 1.45041e-13)
(-2.3937e-09 0.00594215 1.47498e-13)
(-2.399e-09 0.00595282 1.4514e-13)
(-2.40321e-09 0.00596253 8.04319e-14)
(-2.40154e-09 0.00596484 8.04633e-14)
(-2.40571e-09 0.00597455 1.44924e-13)
(-2.41109e-09 0.00598521 1.47629e-13)
(-2.41611e-09 0.00599588 1.44968e-13)
(-2.42065e-09 0.00600559 8.06294e-14)
(-2.41858e-09 0.0060079 8.02183e-14)
(-2.42322e-09 0.0060176 1.45211e-13)
(-2.42803e-09 0.00602827 1.47272e-13)
(-2.43374e-09 0.00603894 1.45386e-13)
(-2.43746e-09 0.00604865 8.01171e-14)
(-2.43637e-09 0.00605096 8.08319e-14)
(-2.43984e-09 0.00606066 1.44502e-13)
(-2.44607e-09 0.00607134 1.48819e-13)
(-2.45014e-09 0.00608209 1.48873e-13)
(-2.45638e-09 0.00609277 1.44628e-13)
(-2.45984e-09 0.00610247 8.09515e-14)
(-2.45875e-09 0.00610478 8.00481e-14)
(-2.46247e-09 0.00611449 1.45348e-13)
(-2.46818e-09 0.00612516 1.4731e-13)
(-2.47299e-09 0.00613582 1.45334e-13)
(-2.47763e-09 0.00614553 8.03264e-14)
(-2.47556e-09 0.00614784 8.05595e-14)
(-2.4801e-09 0.00615755 1.44914e-13)
(-2.48513e-09 0.00616822 1.47661e-13)
(-2.4905e-09 0.00617888 1.45032e-13)
(-2.49468e-09 0.00618859 8.05701e-14)
(-2.493e-09 0.0061909 8.03511e-14)
(-2.49721e-09 0.00620061 1.45081e-13)
(-2.5025e-09 0.00621127 1.47513e-13)
(-2.50766e-09 0.00622194 1.45146e-13)
(-2.51202e-09 0.00623165 8.0467e-14)
(-2.51019e-09 0.00623396 8.04323e-14)
(-2.51453e-09 0.00624366 1.45005e-13)
(-2.51972e-09 0.00625433 1.47567e-13)
(-2.52495e-09 0.006265 1.45089e-13)
(-2.52925e-09 0.00627471 8.05077e-14)
(-2.52747e-09 0.00627702 8.03914e-14)
(-2.53177e-09 0.00628672 1.45035e-13)
(-2.53699e-09 0.00629739 1.47531e-13)
(-2.5422e-09 0.00630806 1.45113e-13)
(-2.54651e-09 0.00631776 8.04764e-14)
(-2.54473e-09 0.00632008 8.04171e-14)
(-2.54902e-09 0.00632978 1.45001e-13)
(-2.55425e-09 0.00634045 1.47557e-13)
(-2.55944e-09 0.00635112 1.45073e-13)
(-2.56379e-09 0.00636082 8.05117e-14)
(-2.56195e-09 0.00636314 8.03706e-14)
(-2.56631e-09 0.00637284 1.45047e-13)
(-2.57147e-09 0.00638351 1.47492e-13)
(-2.57676e-09 0.00639418 1.45139e-13)
(-2.58098e-09 0.00640388 8.04248e-14)
(-2.57929e-09 0.0064062 8.0468e-14)
(-2.58347e-09 0.0064159 1.44923e-13)
(-2.58885e-09 0.00642657 1.4763e-13)
(-2.59387e-09 0.00643724 1.44962e-13)
(-2.59841e-09 0.00644694 8.0627e-14)
(-2.59634e-09 0.00644926 8.02193e-14)
(-2.60098e-09 0.00645896 1.45214e-13)
(-2.60579e-09 0.00646963 1.4727e-13)
(-2.6115e-09 0.0064803 1.45383e-13)
(-2.61522e-09 0.00649 8.01123e-14)
(-2.61413e-09 0.00649231 8.08355e-14)
(-2.6176e-09 0.00650202 1.44502e-13)
(-2.62383e-09 0.00651269 1.48819e-13)
(-2.6279e-09 0.00652345 1.48868e-13)
(-2.63414e-09 0.00653412 1.44623e-13)
(-2.6376e-09 0.00654382 8.0945e-14)
(-2.63651e-09 0.00654614 8.005e-14)
(-2.64024e-09 0.00655584 1.45345e-13)
(-2.64594e-09 0.00656651 1.47308e-13)
(-2.65075e-09 0.00657718 1.45326e-13)
(-2.65539e-09 0.00658688 8.03228e-14)
(-2.65332e-09 0.0065892 8.05589e-14)
(-2.65786e-09 0.0065989 1.44915e-13)
(-2.66289e-09 0.00660957 1.47655e-13)
(-2.66826e-09 0.00662024 1.45028e-13)
(-2.67244e-09 0.00662994 8.05627e-14)
(-2.67076e-09 0.00663226 8.03552e-14)
(-2.67497e-09 0.00664196 1.45077e-13)
(-2.68027e-09 0.00665263 1.47513e-13)