/*--------------------------------*- C++ -*----------------------------------*\
| =========                 |                                                 |
| \\      /  F ield         | OpenFOAM: The Open Source CFD Toolbox           |
|  \\    /   O peration     | Version:  2206                                  |
|   \\  /    A nd           | Website:  www.openfoam.com                      |
|    \\/     M anipulation  |                                                 |
\*---------------------------------------------------------------------------*/
FoamFile
{
    version     2.0;
    format      ascii;
    arch        "LSB;label=32;scalar=64";
    class       volScalarField;
    location    "7000";
    object      p;
}
// * * * * * * * * * * * * * * * * * * * * * * * * * * * * * * * * * * * * * //

dimensions      [0 2 -2 0 0 0 0];

internalField   nonuniform List<scalar> 
100
(
-1.36819406e-09
0.0390803226
0.0575079646
0.0751403423
0.0889968781
0.100543861
0.110193438
0.118350518
0.125308252
0.131292076
0.136476742
0.140999491
0.144969294
0.148473567
0.151583092
0.154355675
0.156838897
0.159072215
0.161088569
0.162915633
0.164576796
0.166091932
0.167478018
0.168749626
0.16991932
0.170997982
0.171995072
0.172918848
0.173776545
0.174574522
0.175318387
0.176013102
0.17666307
0.177272209
0.177844014
0.178381613
0.178887809
0.179365123
0.179815827
0.180241969
0.180645406
0.18102782
0.181390737
0.181735548
0.182063521
0.182375812
0.18267348
0.182957495
0.183228747
0.183488054
0.183736169
0.183973785
0.184201542
0.184420032
0.184629802
0.18483136
0.185025176
0.185211685
0.185391294
0.185564381
0.185731298
0.185892372
0.186047911
0.1861982
0.186343506
0.186484081
0.18662016
0.186751962
0.186879695
0.187003552
0.187123716
0.187240359
0.187353642
0.187463718
0.187570731
0.187674816
0.187776102
0.187874709
0.187970752
0.18806434
0.188155574
0.188244553
0.188331368
0.188416106
0.188498851
0.188579682
0.188658673
0.188735896
0.188811418
0.188885304
0.188957616
0.189028413
0.189097753
0.189165667
0.189232159
0.18929737
0.189362051
0.189426985
0.189486836
0.189521495
)
;

boundaryField
{
    left
    {
        type            wedge;
    }
    right
    {
        type            wedge;
    }
    outerWall
    {
        type            zeroGradient;
    }
    innerWall
    {
        type            zeroGradient;
    }
    frontAndBack
    {
        type            empty;
    }
}


// ************************************************************************* //
