/*--------------------------------*- C++ -*----------------------------------*\
| =========                 |                                                 |
| \\      /  F ield         | OpenFOAM: The Open Source CFD Toolbox           |
|  \\    /   O peration     | Version:  2206                                  |
|   \\  /    A nd           | Website:  www.openfoam.com                      |
|    \\/     M anipulation  |                                                 |
\*---------------------------------------------------------------------------*/
FoamFile
{
    version     2.0;
    format      ascii;
    arch        "LSB;label=32;scalar=64";
    class       surfaceScalarField;
    location    "7000";
    object      phi;
}
// * * * * * * * * * * * * * * * * * * * * * * * * * * * * * * * * * * * * * //

dimensions      [0 3 -1 0 0 0 0];

oriented        oriented;

internalField   nonuniform List<scalar> 
99
(
3.405305e-10
6.54745831e-10
9.46088229e-10
1.21775382e-09
1.47224965e-09
1.71164975e-09
1.93766425e-09
2.15174011e-09
2.35509241e-09
2.54877359e-09
2.73367604e-09
2.91059079e-09
3.08019057e-09
3.24308653e-09
3.39979624e-09
3.5508039e-09
3.69651415e-09
3.83731878e-09
3.97353799e-09
4.10549566e-09
4.23344707e-09
4.35766502e-09
4.47835397e-09
4.59574801e-09
4.71001109e-09
4.82134745e-09
4.9298879e-09
5.03581396e-09
5.13922911e-09
5.24029689e-09
5.33909785e-09
5.43578189e-09
5.53040991e-09
5.62312105e-09
5.71395933e-09
5.80305569e-09
5.89043944e-09
5.97623511e-09
6.06045898e-09
6.14323088e-09
6.22455553e-09
6.30454916e-09
6.38320607e-09
6.46064002e-09
6.53683591e-09
6.61190569e-09
6.68582576e-09
6.75870698e-09
6.83051792e-09
6.90136886e-09
6.97122123e-09
7.04018509e-09
7.10821527e-09
7.17542202e-09
7.24175407e-09
7.30732203e-09
7.37206898e-09
7.43610618e-09
7.49937154e-09
7.56197693e-09
7.62385541e-09
7.68511975e-09
7.74569842e-09
7.80570527e-09
7.86506431e-09
7.92389078e-09
7.98210428e-09
8.03982154e-09
8.09695806e-09
8.15363198e-09
8.20975414e-09
8.26544598e-09
8.32061248e-09
8.3753794e-09
8.42964533e-09
8.48354039e-09
8.53695608e-09
8.59002816e-09
8.64264445e-09
8.694939e-09
8.74679891e-09
8.7983571e-09
8.84950866e-09
8.90036995e-09
8.95085013e-09
9.00104996e-09
9.0509018e-09
9.1004754e-09
9.14973417e-09
9.19871532e-09
9.24741395e-09
9.2958377e-09
9.34400294e-09
9.39190423e-09
9.43955925e-09
9.4869685e-09
9.53414142e-09
9.58108382e-09
9.6278041e-09
)
;

boundaryField
{
    left
    {
        type            wedge;
        value           nonuniform List<scalar> 
100
(
1.34135265e-05
1.2377059e-05
1.1476158e-05
1.07009914e-05
1.00247564e-05
9.43002294e-06
8.90287e-06
8.43247111e-06
8.01020044e-06
7.62909281e-06
7.2834641e-06
6.96862963e-06
6.68069398e-06
6.41639237e-06
6.17296749e-06
5.94807427e-06
5.73970678e-06
5.54613813e-06
5.36587355e-06
5.19761366e-06
5.04022265e-06
4.89270333e-06
4.75417748e-06
4.62386781e-06
4.50108382e-06
4.3852109e-06
4.27569933e-06
4.17205598e-06
4.07383795e-06
3.98064561e-06
3.89211744e-06
3.80792627e-06
3.72777466e-06
3.65139157e-06
3.57853015e-06
3.50896446e-06
3.44248731e-06
3.37890898e-06
3.31805471e-06
3.25976371e-06
3.20388733e-06
3.15028864e-06
3.09884069e-06
3.04942564e-06
3.00193449e-06
2.95626576e-06
2.9123248e-06
2.8700238e-06
2.82928064e-06
2.79001844e-06
2.75216566e-06
2.71565515e-06
2.6804238e-06
2.64641276e-06
2.61356658e-06
2.58183297e-06
2.55116307e-06
2.5215107e-06
2.49283215e-06
2.46508654e-06
2.43823507e-06
2.41224096e-06
2.3870697e-06
2.36268844e-06
2.33906617e-06
2.31617329e-06
2.29398202e-06
2.27246585e-06
2.25159944e-06
2.23135903e-06
2.21172183e-06
2.19266604e-06
2.17417119e-06
2.15621761e-06
2.13878642e-06
2.12185989e-06
2.10542096e-06
2.0894532e-06
2.07394119e-06
2.05887003e-06
2.04422536e-06
2.0299937e-06
2.016162e-06
2.00271764e-06
1.98964879e-06
1.97694398e-06
1.96459205e-06
1.95258258e-06
1.9409054e-06
1.92955079e-06
1.91850929e-06
1.90777202e-06
1.89733033e-06
1.88717578e-06
1.8773005e-06
1.86769676e-06
1.858357e-06
1.84927424e-06
1.8404419e-06
1.83185281e-06
)
;
    }
    right
    {
        type            wedge;
        value           nonuniform List<scalar> 
100
(
-1.3413867e-05
-1.23773732e-05
-1.14764494e-05
-1.07012631e-05
-1.00250109e-05
-9.43026234e-06
-8.90309602e-06
-8.43268518e-06
-8.01040379e-06
-7.62928649e-06
-7.28364901e-06
-6.96880654e-06
-6.68086358e-06
-6.41655526e-06
-6.1731242e-06
-5.94822527e-06
-5.73985249e-06
-5.54627892e-06
-5.36600977e-06
-5.19774561e-06
-5.04035061e-06
-4.89282755e-06
-4.75429818e-06
-4.62398519e-06
-4.50119809e-06
-4.38532223e-06
-4.27580788e-06
-4.1721619e-06
-4.07394137e-06
-3.98074667e-06
-3.89221624e-06
-3.80802294e-06
-3.7278693e-06
-3.65148427e-06
-3.57862099e-06
-3.50905354e-06
-3.44257471e-06
-3.37899476e-06
-3.31813895e-06
-3.25984647e-06
-3.20396867e-06
-3.15036861e-06
-3.09891936e-06
-3.04950305e-06
-3.0020107e-06
-2.95634081e-06
-2.91239874e-06
-2.87009666e-06
-2.82935247e-06
-2.79008927e-06
-2.75223553e-06
-2.71572409e-06
-2.68049185e-06
-2.64647994e-06
-2.61363293e-06
-2.58189851e-06
-2.55122784e-06
-2.52157471e-06
-2.49289544e-06
-2.46514912e-06
-2.43829697e-06
-2.4123022e-06
-2.3871303e-06
-2.36274842e-06
-2.33912555e-06
-2.31623209e-06
-2.29404025e-06
-2.27252354e-06
-2.2516566e-06
-2.23141567e-06
-2.21177798e-06
-2.19272171e-06
-2.17422638e-06
-2.15627235e-06
-2.13884072e-06
-2.12191376e-06
-2.10547441e-06
-2.08950625e-06
-2.07399384e-06
-2.0589223e-06
-2.04427725e-06
-2.03004523e-06
-2.01621318e-06
-2.00276849e-06
-1.9896993e-06
-1.97699416e-06
-1.96464192e-06
-1.95263215e-06
-1.94095467e-06
-1.92959978e-06
-1.91855799e-06
-1.90782045e-06
-1.8973785e-06
-1.88722369e-06
-1.87734816e-06
-1.86774417e-06
-1.85840418e-06
-1.84932119e-06
-1.84048862e-06
-1.83189931e-06
)
;
    }
    outerWall
    {
        type            calculated;
        value           uniform 9.67430901e-09;
    }
    innerWall
    {
        type            calculated;
        value           uniform 0;
    }
    frontAndBack
    {
        type            empty;
        value           nonuniform List<scalar> 0();
    }
}


// ************************************************************************* //
