/*--------------------------------*- C++ -*----------------------------------*\
| =========                 |                                                 |
| \\      /  F ield         | OpenFOAM: The Open Source CFD Toolbox           |
|  \\    /   O peration     | Version:  2206                                  |
|   \\  /    A nd           | Website:  www.openfoam.com                      |
|    \\/     M anipulation  |                                                 |
\*---------------------------------------------------------------------------*/
FoamFile
{
    version     2.0;
    format      ascii;
    arch        "LSB;label=32;scalar=64";
    class       volVectorField;
    location    "7000";
    object      U;
}
// * * * * * * * * * * * * * * * * * * * * * * * * * * * * * * * * * * * * * //

dimensions      [0 1 -1 0 0 0 0];

internalField   nonuniform List<vector> 
100
(
(0.0121941372 0.596171868 0)
(-0.00387462281 0.550105474 0)
(0.000932500596 0.510064415 0)
(-0.000127934661 0.475611694 0)
(0.000105781907 0.44555604 0)
(9.0113234e-05 0.419122771 0)
(0.000108939687 0.395693156 0)
(0.000120170116 0.374786007 0)
(0.000129631238 0.356017946 0)
(0.00013724097 0.339079399 7.34812722e-20)
(0.000143408227 0.323717734 -7.75651754e-20)
(0.000148394833 0.309724734 0)
(0.000152414937 0.296927272 0)
(0.0001556383 0.285180236 8.70894088e-20)
(0.00015820097 0.274361071 0)
(0.000160213044 0.264365569 0)
(0.000161764236 0.255104557 0)
(0.000162928183 0.246501282 0)
(0.000163765663 0.238489325 0)
(0.000164327176 0.231010917 0)
(0.000164654844 0.224015579 0)
(0.00016478402 0.217459003 0)
(0.000164744456 0.211302142 0)
(0.000164561341 0.20551045 0)
(0.000164256034 0.20005325 0)
(0.000163846747 0.194903211 0)
(0.000163349013 0.190035903 0)
(0.00016277617 0.185429419 0)
(0.000162139649 0.181064062 0)
(0.000161449315 0.176922071 0)
(0.000160713655 0.17298739 0)
(0.000159940032 0.169245465 0)
(0.000159134801 0.165683077 0)
(0.000158303492 0.162288191 0)
(0.000157450887 0.159049823 0)
(0.000156581166 0.155957933 0)
(0.000155697948 0.153003321 0)
(0.0001548044 0.150177546 0)
(0.000153903266 0.147472843 0)
(0.000152996953 0.144882063 0)
(0.000152087546 0.142398608 0)
(0.000151176876 0.140016384 0)
(0.000150266522 0.137729747 0)
(0.000149357874 0.13553347 0)
(0.000148452127 0.133422699 0)
(0.000147550333 0.131392923 0)
(0.00014665339 0.129439945 0)
(0.000145762087 0.127559853 0)
(0.000144877092 0.125748997 0)
(0.000143998993 0.124003968 0)
(0.00014312828 0.12232158 0)
(0.000142265382 0.120698847 0)
(0.000141410649 0.119132972 0)
(0.000140564387 0.117621332 0)
(0.000139726841 0.116161462 0)
(0.000138898218 0.114751046 0)
(0.000138078678 0.113387905 0)
(0.000137268354 0.112069985 0)
(0.00013646734 0.110795353 0)
(0.000135675711 0.109562184 0)
(0.000134893507 0.108368753 0)
(0.000134120758 0.107213432 0)
(0.000133357464 0.10609468 0)
(0.000132603619 0.105011041 0)
(0.000131859193 0.103961134 0)
(0.000131124152 0.102943649 0)
(0.000130398442 0.101957345 7.40372524e-20)
(0.000129682008 0.101001044 0)
(0.000128974779 0.100073628 0)
(0.00012827668 0.0991740306 0)
(0.000127587623 0.0983012419 0)
(0.000126907527 0.0974542988 7.08346117e-20)
(0.000126236291 0.0966322843 0)
(0.00012557383 0.095834325 0)
(0.000124920037 0.0950595879 0)
(0.000124274818 0.0943072787 -6.84157546e-20)
(0.000123638053 0.0935766391 0)
(0.000123009649 0.092866945 0)
(0.000122389507 0.0921775044 0)
(0.000121777506 0.0915076561 0)
(0.000121173533 0.0908567674 0)
(0.000120577473 0.090224233 0)
(0.00011998926 0.0896094733 0)
(0.000119408737 0.0890119332 -6.39492181e-20)
(0.000118835817 0.0884310808 0)
(0.000118270357 0.0878664059 0)
(0.000117712332 0.0873174194 0)
(0.000117161587 0.0867836518 6.18921011e-20)
(0.000116617976 0.0862646526 0)
(0.000116080908 0.0857599888 0)
(0.000115550384 0.0852692446 0)
(0.00011503062 0.0847920204 5.99447728e-20)
(0.000114531493 0.0843279318 0)
(0.000114032155 0.083876609 0)
(0.000113382545 0.0834376964 0)
(0.000112436608 0.0830108509 5.81010545e-20)
(0.000112363633 0.0825957417 0)
(0.000117425963 0.0821920532 0)
(0.000125857771 0.0817994929 0)
(9.15980177e-05 0.0814177477 0)
)
;

boundaryField
{
    left
    {
        type            wedge;
    }
    right
    {
        type            wedge;
    }
    outerWall
    {
        type            navierSlip;
        value           uniform (0 0.0812352716 0);
        slipLength      uniform 1;
        wallVelocity    uniform (0 0 0);
    }
    innerWall
    {
        type            rotatingWallVelocity;
        origin          (0 0 0);
        axis            (0 0 1);
        omega           constant 12.566;
        value           uniform (0 0.628204307 -0);
    }
    frontAndBack
    {
        type            empty;
    }
}


// ************************************************************************* //
