/*--------------------------------*- C++ -*----------------------------------*\
| =========                 |                                                 |
| \\      /  F ield         | OpenFOAM: The Open Source CFD Toolbox           |
|  \\    /   O peration     | Version:  2206                                  |
|   \\  /    A nd           | Website:  www.openfoam.com                      |
|    \\/     M anipulation  |                                                 |
\*---------------------------------------------------------------------------*/
FoamFile
{
    version     2.0;
    format      ascii;
    arch        "LSB;label=32;scalar=64";
    class       volScalarField;
    location    "122";
    object      p;
}
// * * * * * * * * * * * * * * * * * * * * * * * * * * * * * * * * * * * * * //

dimensions      [0 2 -2 0 0 0 0];

internalField   nonuniform List<scalar> 
50000
(
3.70508e-10
2.56859e-09
6.50484e-09
1.24759e-08
2.00977e-08
2.9795e-08
4.14915e-08
5.51463e-08
7.07017e-08
8.82425e-08
1.07728e-07
1.2916e-07
1.52544e-07
1.77878e-07
2.05161e-07
2.34393e-07
2.65575e-07
2.98707e-07
3.33787e-07
3.70817e-07
4.09797e-07
4.50725e-07
4.93603e-07
5.3843e-07
5.85206e-07
6.33932e-07
6.84606e-07
7.3723e-07
7.91803e-07
8.48325e-07
9.06796e-07
9.67217e-07
1.02959e-06
1.09391e-06
1.16017e-06
1.22839e-06
1.29856e-06
1.37067e-06
1.44474e-06
1.52075e-06
1.59871e-06
1.67863e-06
1.76049e-06
1.8443e-06
1.93006e-06
2.01777e-06
2.10743e-06
2.19903e-06
2.29259e-06
2.38809e-06
2.48555e-06
2.58495e-06
2.68631e-06
2.78961e-06
2.89486e-06
3.00206e-06
3.11121e-06
3.22231e-06
3.33536e-06
3.45035e-06
3.5673e-06
3.6862e-06
3.80704e-06
3.92983e-06
4.05458e-06
4.18127e-06
4.30991e-06
4.4405e-06
4.57304e-06
4.70753e-06
4.84397e-06
4.98236e-06
5.12269e-06
5.26498e-06
5.40921e-06
5.5554e-06
5.70353e-06
5.85361e-06
6.00564e-06
6.15962e-06
6.31555e-06
6.47343e-06
6.63326e-06
6.79504e-06
6.95876e-06
7.12444e-06
7.29207e-06
7.46164e-06
7.63316e-06
7.80663e-06
7.98206e-06
8.15943e-06
8.33875e-06
8.52002e-06
8.70323e-06
8.8884e-06
9.07552e-06
9.26458e-06
9.4556e-06
9.64856e-06
9.84347e-06
1.00403e-05
1.02391e-05
1.04399e-05
1.06426e-05
1.08473e-05
1.10539e-05
1.12624e-05
1.14729e-05
1.16854e-05
1.18998e-05
1.21162e-05
1.23345e-05
1.25547e-05
1.27769e-05
1.30011e-05
1.32272e-05
1.34552e-05
1.36852e-05
1.39172e-05
1.41511e-05
1.43869e-05
1.46247e-05
1.48644e-05
1.51061e-05
1.53498e-05
1.55954e-05
1.58429e-05
1.60924e-05
1.63438e-05
1.65972e-05
1.68526e-05
1.71098e-05
1.73691e-05
1.76303e-05
1.78934e-05
1.81585e-05
1.84255e-05
1.86945e-05
1.89654e-05
1.92383e-05
1.95131e-05
1.97899e-05
2.00686e-05
2.03493e-05
2.06319e-05
2.09165e-05
2.1203e-05
2.14915e-05
2.17819e-05
2.20743e-05
2.23686e-05
2.26649e-05
2.29631e-05
2.32633e-05
2.35654e-05
2.38695e-05
2.41755e-05
2.44834e-05
2.47934e-05
2.51052e-05
2.5419e-05
2.57348e-05
2.60525e-05
2.63722e-05
2.66938e-05
2.70173e-05
2.73428e-05
2.76703e-05
2.79997e-05
2.83311e-05
2.86644e-05
2.89996e-05
2.93368e-05
2.9676e-05
3.00171e-05
3.03601e-05
3.07051e-05
3.10521e-05
3.1401e-05
3.17518e-05
3.21046e-05
3.24593e-05
3.2816e-05
3.31747e-05
3.35353e-05
3.38978e-05
3.42623e-05
3.46287e-05
3.49971e-05
3.53675e-05
3.57398e-05
3.6114e-05
3.64902e-05
3.68683e-05
3.72484e-05
3.76304e-05
3.80144e-05
3.84003e-05
3.87882e-05
3.9178e-05
3.95698e-05
3.99636e-05
4.03592e-05
4.07569e-05
4.11564e-05
4.1558e-05
4.19614e-05
4.23668e-05
4.27742e-05
4.31835e-05
4.35948e-05
4.4008e-05
4.44232e-05
4.48403e-05
4.52594e-05
4.56804e-05
4.61034e-05
4.65283e-05
4.69551e-05
4.73839e-05
4.78147e-05
4.82474e-05
4.86821e-05
4.91187e-05
4.95572e-05
4.99978e-05
5.04402e-05
5.08846e-05
5.1331e-05
5.17793e-05
5.22295e-05
5.26817e-05
5.31359e-05
5.3592e-05
5.405e-05
5.451e-05
5.4972e-05
5.54359e-05
5.59017e-05
5.63695e-05
5.68393e-05
5.7311e-05
5.77846e-05
5.82602e-05
5.87377e-05
5.92172e-05
5.96987e-05
6.01821e-05
6.06674e-05
6.11547e-05
6.16439e-05
6.21351e-05
6.26282e-05
6.31233e-05
6.36203e-05
6.41193e-05
6.46203e-05
6.51231e-05
6.5628e-05
6.61347e-05
6.66435e-05
6.71542e-05
6.76668e-05
6.81814e-05
6.86979e-05
6.92164e-05
6.97368e-05
7.02591e-05
7.07835e-05
7.13097e-05
7.1838e-05
7.23681e-05
7.29002e-05
7.34343e-05
7.39703e-05
7.45083e-05
7.50482e-05
7.55901e-05
7.61339e-05
7.66796e-05
7.72274e-05
7.7777e-05
7.83286e-05
7.88822e-05
7.94377e-05
7.99951e-05
8.05545e-05
8.11159e-05
8.16792e-05
8.22445e-05
8.28117e-05
8.33808e-05
8.39519e-05
8.4525e-05
8.51e-05
8.56769e-05
8.62558e-05
8.68367e-05
8.74195e-05
8.80042e-05
8.85909e-05
8.91795e-05
8.97701e-05
9.03627e-05
9.09572e-05
9.15536e-05
9.2152e-05
9.27523e-05
9.33546e-05
9.39588e-05
9.4565e-05
9.51732e-05
9.57833e-05
9.63953e-05
9.70093e-05
9.76252e-05
9.82431e-05
9.88629e-05
9.94847e-05
0.000100108
0.000100734
0.000101362
0.000101991
0.000102623
0.000103256
0.000103892
0.000104529
0.000105168
0.00010581
0.000106453
0.000107098
0.000107745
0.000108394
0.000109045
0.000109698
0.000110353
0.00011101
0.000111669
0.00011233
0.000112992
0.000113657
0.000114324
0.000114992
0.000115663
0.000116335
0.000117009
0.000117686
0.000118364
0.000119044
0.000119727
0.000120411
0.000121097
0.000121785
0.000122475
0.000123167
0.000123861
0.000124557
0.000125254
0.000125954
0.000126656
0.000127359
0.000128065
0.000128773
0.000129482
0.000130194
0.000130907
0.000131622
0.00013234
0.000133059
0.00013378
0.000134503
0.000135228
0.000135955
0.000136684
0.000137415
0.000138148
0.000138883
0.00013962
0.000140358
0.000141099
0.000141842
0.000142586
0.000143333
0.000144081
0.000144832
0.000145584
0.000146338
0.000147095
0.000147853
0.000148613
0.000149375
0.000150139
0.000150905
0.000151673
0.000152443
0.000153215
0.000153989
0.000154765
0.000155542
0.000156322
0.000157104
0.000157887
0.000158673
0.00015946
0.000160249
0.000161041
0.000161834
0.000162629
0.000163427
0.000164226
0.000165027
0.00016583
0.000166635
0.000167442
0.000168251
0.000169062
0.000169874
0.000170689
0.000171506
0.000172324
0.000173145
0.000173968
0.000174792
0.000175618
0.000176447
0.000177277
0.00017811
0.000178944
0.00017978
0.000180618
0.000181458
0.0001823
0.000183144
0.00018399
0.000184838
0.000185688
0.00018654
0.000187393
0.000188249
0.000189107
0.000189966
0.000190828
0.000191691
0.000192557
0.000193424
0.000194293
0.000195165
0.000196038
0.000196913
0.00019779
0.000198669
0.00019955
0.000200433
0.000201318
0.000202205
0.000203094
0.000203984
0.000204877
0.000205772
0.000206668
0.000207567
0.000208468
0.00020937
0.000210274
0.000211181
0.000212089
0.000212999
0.000213912
0.000214826
0.000215742
0.00021666
0.00021758
0.000218502
0.000219426
0.000220352
0.000221279
0.000222209
0.000223141
0.000224074
0.00022501
0.000225948
0.000226887
0.000227828
0.000228772
0.000229717
0.000230664
0.000231614
0.000232565
0.000233518
0.000234473
0.00023543
0.000236389
0.00023735
0.000238313
0.000239278
0.000240245
0.000241213
0.000242184
0.000243157
0.000244131
0.000245108
0.000246086
0.000247067
0.000248049
0.000249033
0.00025002
0.000251008
0.000251998
0.00025299
0.000253984
0.00025498
0.000255978
0.000256978
0.00025798
0.000258984
0.000259989
0.000260997
0.000262007
0.000263018
0.000264032
0.000265047
0.000266065
0.000267084
0.000268106
0.000269129
0.000270154
0.000271181
0.000272211
0.000273242
0.000274275
0.00027531
0.000276347
0.000277386
0.000278426
0.000279469
0.000280514
0.000281561
0.000282609
0.00028366
0.000284712
0.000285767
0.000286823
0.000287882
0.000288942
0.000290004
0.000291069
0.000292135
0.000293203
0.000294273
0.000295345
0.000296419
0.000297495
0.000298573
0.000299653
0.000300734
0.000301818
0.000302904
0.000303992
0.000305081
0.000306173
0.000307266
0.000308362
0.000309459
0.000310558
0.000311659
0.000312763
0.000313868
0.000314975
0.000316084
0.000317195
0.000318308
0.000319423
0.00032054
0.000321659
0.000322779
0.000323902
0.000325027
0.000326153
0.000327282
0.000328412
0.000329545
0.000330679
0.000331816
0.000332954
0.000334094
0.000335236
0.000336381
0.000337527
0.000338675
0.000339825
0.000340977
0.000342131
0.000343286
0.000344444
0.000345604
0.000346766
0.000347929
0.000349095
0.000350262
0.000351432
0.000352603
0.000353777
0.000354952
0.000356129
0.000357309
0.00035849
0.000359673
0.000360858
0.000362045
0.000363234
0.000364425
0.000365618
0.000366813
0.000368009
0.000369208
0.000370409
0.000371611
0.000372816
0.000374023
0.000375231
0.000376441
0.000377654
0.000378868
0.000380084
0.000381303
0.000382523
0.000383745
0.000384969
0.000386195
0.000387423
0.000388653
0.000389885
0.000391119
0.000392354
0.000393592
0.000394832
0.000396073
0.000397317
0.000398562
0.00039981
0.000401059
0.000402311
0.000403564
0.000404819
0.000406076
0.000407336
0.000408597
0.00040986
0.000411125
0.000412392
0.000413661
0.000414931
0.000416204
0.000417479
0.000418756
0.000420034
0.000421315
0.000422597
0.000423882
0.000425168
0.000426457
0.000427747
0.000429039
0.000430334
0.00043163
0.000432928
0.000434228
0.00043553
0.000436834
0.00043814
0.000439448
0.000440758
0.000442069
0.000443383
0.000444699
0.000446016
0.000447336
0.000448658
0.000449981
0.000451306
0.000452634
0.000453963
0.000455294
0.000456628
0.000457963
0.0004593
0.000460639
0.00046198
0.000463323
0.000464668
0.000466015
0.000467364
0.000468714
0.000470067
0.000471422
0.000472778
0.000474137
0.000475497
0.00047686
0.000478224
0.000479591
0.000480959
0.000482329
0.000483701
0.000485075
0.000486452
0.00048783
0.00048921
0.000490592
0.000491975
0.000493361
0.000494749
0.000496139
0.000497531
0.000498924
0.00050032
0.000501717
0.000503117
0.000504518
0.000505922
0.000507327
0.000508734
0.000510143
0.000511555
0.000512968
0.000514383
0.0005158
0.000517219
0.00051864
0.000520063
0.000521488
0.000522914
0.000524343
0.000525774
0.000527206
0.000528641
0.000530077
0.000531516
0.000532956
0.000534399
0.000535843
0.000537289
0.000538738
0.000540188
0.00054164
0.000543094
0.00054455
0.000546008
0.000547468
0.00054893
0.000550393
0.000551859
0.000553327
0.000554797
0.000556268
0.000557742
0.000559217
0.000560695
0.000562174
0.000563655
0.000565139
0.000566624
0.000568111
0.0005696
0.000571092
0.000572585
0.00057408
0.000575577
0.000577075
0.000578576
0.000580079
0.000581584
0.00058309
0.000584599
0.00058611
0.000587622
0.000589137
0.000590653
0.000592172
0.000593692
0.000595214
0.000596738
0.000598265
0.000599793
0.000601323
0.000602855
0.000604389
0.000605925
0.000607463
0.000609002
0.000610544
0.000612088
0.000613634
0.000615181
0.000616731
0.000618282
0.000619836
0.000621391
0.000622949
0.000624508
0.000626069
0.000627632
0.000629198
0.000630765
0.000632334
0.000633905
0.000635478
0.000637053
0.00063863
0.000640208
0.000641789
0.000643372
0.000644957
0.000646543
0.000648132
0.000649722
0.000651315
0.000652909
0.000654505
0.000656104
0.000657704
0.000659306
0.00066091
0.000662516
0.000664124
0.000665734
0.000667346
0.00066896
0.000670576
0.000672194
0.000673814
0.000675435
0.000677059
0.000678685
0.000680312
0.000681942
0.000683573
0.000685207
0.000686842
0.000688479
0.000690118
0.00069176
0.000693403
0.000695048
0.000696695
0.000698344
0.000699995
0.000701648
0.000703302
0.000704959
0.000706618
0.000708279
0.000709941
0.000711606
0.000713272
0.000714941
0.000716611
0.000718284
0.000719958
0.000721634
0.000723312
0.000724993
0.000726675
0.000728359
0.000730045
0.000731733
0.000733423
0.000735115
0.000736808
0.000738504
0.000740202
0.000741901
0.000743603
0.000745307
0.000747012
0.00074872
0.000750429
0.00075214
0.000753854
0.000755569
0.000757286
0.000759005
0.000760726
0.000762449
0.000764174
0.000765901
0.00076763
0.000769361
0.000771094
0.000772829
0.000774565
0.000776304
0.000778045
0.000779787
0.000781532
0.000783278
0.000785026
0.000786777
0.000788529
0.000790283
0.000792039
0.000793798
0.000795558
0.00079732
0.000799084
0.00080085
0.000802618
0.000804387
0.000806159
0.000807933
0.000809709
0.000811486
0.000813266
0.000815047
0.000816831
0.000818616
0.000820404
0.000822193
0.000823984
0.000825777
0.000827573
0.00082937
0.000831169
0.00083297
0.000834773
0.000836578
0.000838384
0.000840193
0.000842004
0.000843817
0.000845631
0.000847448
0.000849267
0.000851087
0.00085291
0.000854734
0.00085656
0.000858389
0.000860219
0.000862051
0.000863885
0.000865721
0.000867559
0.000869399
0.000871241
0.000873085
0.000874931
0.000876779
0.000878629
0.00088048
0.000882334
0.00088419
0.000886047
0.000887907
0.000889768
0.000891631
0.000893497
0.000895364
0.000897233
0.000899104
0.000900978
0.000902853
0.00090473
0.000906609
0.00090849
0.000910372
0.000912257
0.000914144
0.000916033
0.000917923
0.000919816
0.000921711
0.000923607
0.000925506
0.000927406
0.000929308
0.000931213
0.000933119
0.000935027
0.000936937
0.00093885
0.000940764
0.00094268
0.000944598
0.000946518
0.000948439
0.000950363
0.000952289
0.000954217
0.000956146
0.000958078
0.000960011
0.000961947
0.000963884
0.000965824
0.000967765
0.000969709
0.000971654
0.000973601
0.00097555
0.000977501
0.000979454
0.000981409
0.000983366
0.000985325
0.000987286
0.000989249
0.000991213
0.00099318
0.000995149
0.000997119
0.000999092
0.00100107
0.00100304
0.00100502
0.001007
0.00100898
0.00101097
0.00101295
0.00101494
0.00101693
0.00101892
0.00102092
0.00102291
0.00102491
0.00102691
0.00102891
0.00103092
0.00103292
0.00103493
0.00103694
0.00103895
0.00104097
0.00104298
0.001045
0.00104702
0.00104904
0.00105106
0.00105309
0.00105511
0.00105714
0.00105917
0.00106121
0.00106324
0.00106528
0.00106732
0.00106936
0.0010714
0.00107345
0.00107549
0.00107754
0.00107959
0.00108164
0.0010837
0.00108576
0.00108781
0.00108987
0.00109194
0.001094
0.00109607
0.00109813
0.0011002
0.00110228
0.00110435
0.00110643
0.0011085
0.00111058
0.00111267
0.00111475
0.00111683
0.00111892
0.00112101
0.0011231
0.0011252
0.00112729
0.00112939
0.00113149
0.00113359
0.00113569
0.0011378
0.0011399
0.00114201
0.00114412
0.00114624
0.00114835
0.00115047
0.00115259
0.00115471
0.00115683
0.00115896
0.00116108
0.00116321
0.00116534
0.00116747
0.00116961
0.00117174
0.00117388
0.00117602
0.00117816
0.00118031
0.00118245
0.0011846
0.00118675
0.0011889
0.00119106
0.00119321
0.00119537
0.00119753
0.00119969
0.00120186
0.00120402
0.00120619
0.00120836
0.00121053
0.0012127
0.00121488
0.00121706
0.00121923
0.00122142
0.0012236
0.00122578
0.00122797
0.00123016
0.00123235
0.00123454
0.00123674
0.00123893
0.00124113
0.00124333
0.00124554
0.00124774
0.00124995
0.00125216
0.00125437
0.00125658
0.00125879
0.00126101
0.00126323
0.00126545
0.00126767
0.00126989
0.00127212
0.00127435
0.00127658
0.00127881
0.00128104
0.00128328
0.00128552
0.00128776
0.00129
0.00129224
0.00129449
0.00129673
0.00129898
0.00130123
0.00130349
0.00130574
0.001308
0.00131026
0.00131252
0.00131478
0.00131705
0.00131931
0.00132158
0.00132385
0.00132613
0.0013284
0.00133068
0.00133296
0.00133524
0.00133752
0.0013398
0.00134209
0.00134438
0.00134667
0.00134896
0.00135125
0.00135355
0.00135585
0.00135815
0.00136045
0.00136275
0.00136506
0.00136737
0.00136968
0.00137199
0.0013743
0.00137662
0.00137894
0.00138126
0.00138358
0.0013859
0.00138823
0.00139055
0.00139288
0.00139521
0.00139755
0.00139988
0.00140222
0.00140456
0.0014069
0.00140924
0.00141159
0.00141393
0.00141628
0.00141863
0.00142099
0.00142334
0.0014257
0.00142806
0.00143042
0.00143278
0.00143514
0.00143751
0.00143988
0.00144225
0.00144462
0.00144699
0.00144937
0.00145175
0.00145413
0.00145651
0.00145889
0.00146128
0.00146367
0.00146606
0.00146845
0.00147084
0.00147324
0.00147563
0.00147803
0.00148043
0.00148284
0.00148524
0.00148765
0.00149006
0.00149247
0.00149488
0.0014973
0.00149972
0.00150213
0.00150456
0.00150698
0.0015094
0.00151183
0.00151426
0.00151669
0.00151912
0.00152156
0.00152399
0.00152643
0.00152887
0.00153131
0.00153376
0.0015362
0.00153865
0.0015411
0.00154355
0.00154601
0.00154846
0.00155092
0.00155338
0.00155584
0.00155831
0.00156077
0.00156324
0.00156571
0.00156818
0.00157066
0.00157313
0.00157561
0.00157809
0.00158057
0.00158305
0.00158554
0.00158802
0.00159051
0.001593
0.0015955
0.00159799
0.00160049
0.00160299
0.00160549
0.00160799
0.0016105
0.001613
0.00161551
0.00161802
0.00162053
0.00162305
0.00162556
0.00162808
0.0016306
0.00163313
0.00163565
0.00163818
0.0016407
0.00164323
0.00164577
0.0016483
0.00165084
0.00165337
0.00165591
0.00165845
0.001661
0.00166354
0.00166609
0.00166864
0.00167119
0.00167375
0.0016763
0.00167886
0.00168142
0.00168398
0.00168654
0.00168911
0.00169167
0.00169424
0.00169681
0.00169939
0.00170196
0.00170454
0.00170712
0.0017097
0.00171228
0.00171487
0.00171745
0.00172004
0.00172263
0.00172522
0.00172782
0.00173041
0.00173301
0.00173561
0.00173821
0.00174082
0.00174342
0.00174603
0.00174864
0.00175125
0.00175387
0.00175648
0.0017591
0.00176172
0.00176434
0.00176697
0.00176959
0.00177222
0.00177485
0.00177748
0.00178011
0.00178275
0.00178539
0.00178802
0.00179067
0.00179331
0.00179595
0.0017986
0.00180125
0.0018039
0.00180655
0.00180921
0.00181186
0.00181452
0.00181718
0.00181985
0.00182251
0.00182518
0.00182785
0.00183052
0.00183319
0.00183586
0.00183854
0.00184122
0.0018439
0.00184658
0.00184926
0.00185195
0.00185464
0.00185733
0.00186002
0.00186271
0.00186541
0.00186811
0.0018708
0.00187351
0.00187621
0.00187892
0.00188162
0.00188433
0.00188704
0.00188976
0.00189247
0.00189519
0.00189791
0.00190063
0.00190335
0.00190608
0.0019088
0.00191153
0.00191426
0.001917
0.00191973
0.00192247
0.00192521
0.00192795
0.00193069
0.00193343
0.00193618
0.00193893
0.00194168
0.00194443
0.00194718
0.00194994
0.0019527
0.00195546
0.00195822
0.00196098
0.00196375
0.00196652
0.00196929
0.00197206
0.00197483
0.00197761
0.00198039
0.00198317
0.00198595
0.00198873
0.00199152
0.0019943
0.00199709
0.00199988
0.00200268
0.00200547
0.00200827
0.00201107
0.00201387
0.00201667
0.00201948
0.00202228
0.00202509
0.0020279
0.00203072
0.00203353
0.00203635
0.00203916
0.00204199
0.00204481
0.00204763
0.00205046
0.00205329
0.00205612
0.00205895
0.00206178
0.00206462
0.00206746
0.0020703
0.00207314
0.00207598
0.00207883
0.00208168
0.00208453
0.00208738
0.00209023
0.00209309
0.00209594
0.0020988
0.00210166
0.00210453
0.00210739
0.00211026
0.00211313
0.002116
0.00211887
0.00212175
0.00212463
0.0021275
0.00213038
0.00213327
0.00213615
0.00213904
0.00214193
0.00214482
0.00214771
0.00215061
0.0021535
0.0021564
0.0021593
0.0021622
0.00216511
0.00216801
0.00217092
0.00217383
0.00217674
0.00217966
0.00218257
0.00218549
0.00218841
0.00219133
0.00219426
0.00219718
0.00220011
0.00220304
0.00220597
0.0022089
0.00221184
0.00221478
0.00221772
0.00222066
0.0022236
0.00222655
0.00222949
0.00223244
0.00223539
0.00223835
0.0022413
0.00224426
0.00224722
0.00225018
0.00225314
0.00225611
0.00225907
0.00226204
0.00226501
0.00226798
0.00227096
0.00227393
0.00227691
0.00227989
0.00228287
0.00228586
0.00228885
0.00229183
0.00229482
0.00229782
0.00230081
0.0023038
0.0023068
0.0023098
0.0023128
0.00231581
0.00231881
0.00232182
0.00232483
0.00232784
0.00233086
0.00233387
0.00233689
0.00233991
0.00234293
0.00234595
0.00234898
0.002352
0.00235503
0.00235806
0.0023611
0.00236413
0.00236717
0.00237021
0.00237325
0.00237629
0.00237933
0.00238238
0.00238543
0.00238848
0.00239153
0.00239459
0.00239764
0.0024007
0.00240376
0.00240682
0.00240989
0.00241295
0.00241602
0.00241909
0.00242216
0.00242524
0.00242831
0.00243139
0.00243447
0.00243755
0.00244064
0.00244372
0.00244681
0.0024499
0.00245299
0.00245608
0.00245918
0.00246227
0.00246537
0.00246847
0.00247158
0.00247468
0.00247779
0.0024809
0.00248401
0.00248712
0.00249024
0.00249335
0.00249647
0.00249959
0.00250272
0.00250584
0.00250897
0.00251209
0.00251523
0.00251836
0.00252149
0.00252463
0.00252777
0.00253091
0.00253405
0.00253719
0.00254034
0.00254349
0.00254664
0.00254979
0.00255294
0.0025561
0.00255925
0.00256241
0.00256558
0.00256874
0.0025719
0.00257507
0.00257824
0.00258141
0.00258459
0.00258776
0.00259094
0.00259412
0.0025973
0.00260048
0.00260367
0.00260685
0.00261004
0.00261323
0.00261643
0.00261962
0.00262282
0.00262602
0.00262922
0.00263242
0.00263562
0.00263883
0.00264204
0.00264525
0.00264846
0.00265167
0.00265489
0.00265811
0.00266133
0.00266455
0.00266777
0.002671
0.00267423
0.00267746
0.00268069
0.00268392
0.00268716
0.0026904
0.00269363
0.00269688
0.00270012
0.00270337
0.00270661
0.00270986
0.00271311
0.00271637
0.00271962
0.00272288
0.00272614
0.0027294
0.00273266
0.00273593
0.00273919
0.00274246
0.00274573
0.002749
0.00275228
0.00275556
0.00275883
0.00276211
0.0027654
0.00276868
0.00277197
0.00277526
0.00277855
0.00278184
0.00278513
0.00278843
0.00279173
0.00279503
0.00279833
0.00280163
0.00280494
0.00280825
0.00281155
0.00281487
0.00281818
0.0028215
0.00282481
0.00282813
0.00283145
0.00283478
0.0028381
0.00284143
0.00284476
0.00284809
0.00285142
0.00285476
0.00285809
0.00286143
0.00286477
0.00286812
0.00287146
0.00287481
0.00287816
0.00288151
0.00288486
0.00288821
0.00289157
0.00289493
0.00289829
0.00290165
0.00290502
0.00290838
0.00291175
0.00291512
0.00291849
0.00292187
0.00292524
0.00292862
0.002932
0.00293538
0.00293877
0.00294215
0.00294554
0.00294893
0.00295232
0.00295571
0.00295911
0.00296251
0.00296591
0.00296931
0.00297271
0.00297612
0.00297952
0.00298293
0.00298634
0.00298976
0.00299317
0.00299659
0.00300001
0.00300343
0.00300685
0.00301027
0.0030137
0.00301713
0.00302056
0.00302399
0.00302743
0.00303086
0.0030343
0.00303774
0.00304118
0.00304463
0.00304807
0.00305152
0.00305497
0.00305842
0.00306188
0.00306533
0.00306879
0.00307225
0.00307571
0.00307918
0.00308264
0.00308611
0.00308958
0.00309305
0.00309652
0.0031
0.00310348
0.00310696
0.00311044
0.00311392
0.00311741
0.00312089
0.00312438
0.00312787
0.00313137
0.00313486
0.00313836
0.00314186
0.00314536
0.00314886
0.00315236
0.00315587
0.00315938
0.00316289
0.0031664
0.00316992
0.00317343
0.00317695
0.00318047
0.00318399
0.00318752
0.00319104
0.00319457
0.0031981
0.00320163
0.00320517
0.0032087
0.00321224
0.00321578
0.00321932
0.00322286
0.00322641
0.00322996
0.00323351
0.00323706
0.00324061
0.00324417
0.00324772
0.00325128
0.00325484
0.00325841
0.00326197
0.00326554
0.00326911
0.00327268
0.00327625
0.00327983
0.0032834
0.00328698
0.00329056
0.00329414
0.00329773
0.00330132
0.0033049
0.00330849
0.00331209
0.00331568
0.00331928
0.00332288
0.00332648
0.00333008
0.00333368
0.00333729
0.0033409
0.00334451
0.00334812
0.00335173
0.00335535
0.00335896
0.00336258
0.00336621
0.00336983
0.00337345
0.00337708
0.00338071
0.00338434
0.00338798
0.00339161
0.00339525
0.00339889
0.00340253
0.00340617
0.00340982
0.00341346
0.00341711
0.00342076
0.00342441
0.00342807
0.00343173
0.00343538
0.00343904
0.00344271
0.00344637
0.00345004
0.00345371
0.00345738
0.00346105
0.00346472
0.0034684
0.00347208
0.00347576
0.00347944
0.00348312
0.00348681
0.0034905
0.00349419
0.00349788
0.00350157
0.00350527
0.00350896
0.00351266
0.00351637
0.00352007
0.00352377
0.00352748
0.00353119
0.0035349
0.00353862
0.00354233
0.00354605
0.00354977
0.00355349
0.00355721
0.00356093
0.00356466
0.00356839
0.00357212
0.00357585
0.00357959
0.00358332
0.00358706
0.0035908
0.00359455
0.00359829
0.00360204
0.00360578
0.00360954
0.00361329
0.00361704
0.0036208
0.00362456
0.00362832
0.00363208
0.00363584
0.00363961
0.00364337
0.00364714
0.00365092
0.00365469
0.00365846
0.00366224
0.00366602
0.0036698
0.00367359
0.00367737
0.00368116
0.00368495
0.00368874
0.00369253
0.00369633
0.00370012
0.00370392
0.00370772
0.00371153
0.00371533
0.00371914
0.00372295
0.00372676
0.00373057
0.00373438
0.0037382
0.00374202
0.00374584
0.00374966
0.00375349
0.00375731
0.00376114
0.00376497
0.0037688
0.00377264
0.00377647
0.00378031
0.00378415
0.00378799
0.00379184
0.00379568
0.00379953
0.00380338
0.00380723
0.00381108
0.00381494
0.0038188
0.00382266
0.00382652
0.00383038
0.00383424
0.00383811
0.00384198
0.00384585
0.00384972
0.0038536
0.00385748
0.00386136
0.00386524
0.00386912
0.003873
0.00387689
0.00388078
0.00388467
0.00388856
0.00389246
0.00389635
0.00390025
0.00390415
0.00390805
0.00391196
0.00391586
0.00391977
0.00392368
0.00392759
0.00393151
0.00393542
0.00393934
0.00394326
0.00394718
0.00395111
0.00395503
0.00395896
0.00396289
0.00396682
0.00397075
0.00397469
0.00397863
0.00398257
0.00398651
0.00399045
0.00399439
0.00399834
0.00400229
0.00400624
0.00401019
0.00401415
0.00401811
0.00402206
0.00402603
0.00402999
0.00403395
0.00403792
0.00404189
0.00404586
0.00404983
0.0040538
0.00405778
0.00406176
0.00406574
0.00406972
0.00407371
0.00407769
0.00408168
0.00408567
0.00408966
0.00409366
0.00409765
0.00410165
0.00410565
0.00410965
0.00411365
0.00411766
0.00412167
0.00412568
0.00412969
0.0041337
0.00413772
0.00414173
0.00414575
0.00414977
0.0041538
0.00415782
0.00416185
0.00416588
0.00416991
0.00417394
0.00417798
0.00418201
0.00418605
0.00419009
0.00419413
0.00419818
0.00420222
0.00420627
0.00421032
0.00421438
0.00421843
0.00422249
0.00422654
0.0042306
0.00423467
0.00423873
0.0042428
0.00424686
0.00425093
0.00425501
0.00425908
0.00426316
0.00426723
0.00427131
0.00427539
0.00427948
0.00428356
0.00428765
0.00429174
0.00429583
0.00429992
0.00430402
0.00430812
0.00431222
0.00431632
0.00432042
0.00432452
0.00432863
0.00433274
0.00433685
0.00434096
0.00434508
0.00434919
0.00435331
0.00435743
0.00436156
0.00436568
0.00436981
0.00437394
0.00437807
0.0043822
0.00438633
0.00439047
0.00439461
0.00439875
0.00440289
0.00440703
0.00441118
0.00441533
0.00441948
0.00442363
0.00442778
0.00443194
0.00443609
0.00444025
0.00444441
0.00444858
0.00445274
0.00445691
0.00446108
0.00446525
0.00446942
0.0044736
0.00447778
0.00448196
0.00448614
0.00449032
0.0044945
0.00449869
0.00450288
0.00450707
0.00451126
0.00451546
0.00451965
0.00452385
0.00452805
0.00453226
0.00453646
0.00454067
0.00454487
0.00454908
0.0045533
0.00455751
0.00456173
0.00456594
0.00457016
0.00457439
0.00457861
0.00458284
0.00458706
0.00459129
0.00459552
0.00459976
0.00460399
0.00460823
0.00461247
0.00461671
0.00462096
0.0046252
0.00462945
0.0046337
0.00463795
0.0046422
0.00464646
0.00465071
0.00465497
0.00465923
0.0046635
0.00466776
0.00467203
0.0046763
0.00468057
0.00468484
0.00468911
0.00469339
0.00469767
0.00470195
0.00470623
0.00471051
0.0047148
0.00471909
0.00472338
0.00472767
0.00473197
0.00473626
0.00474056
0.00474486
0.00474916
0.00475346
0.00475777
0.00476208
0.00476639
0.0047707
0.00477501
0.00477933
0.00478364
0.00478796
0.00479229
0.00479661
0.00480093
0.00480526
0.00480959
0.00481392
0.00481825
0.00482259
0.00482693
0.00483126
0.00483561
0.00483995
0.00484429
0.00484864
0.00485299
0.00485734
0.00486169
0.00486605
0.0048704
0.00487476
0.00487912
0.00488348
0.00488785
0.00489221
0.00489658
0.00490095
0.00490532
0.0049097
0.00491407
0.00491845
0.00492283
0.00492721
0.0049316
0.00493598
0.00494037
0.00494476
0.00494915
0.00495354
0.00495794
0.00496234
0.00496673
0.00497114
0.00497554
0.00497994
0.00498435
0.00498876
0.00499317
0.00499758
0.005002
0.00500642
0.00501083
0.00501525
0.00501968
0.0050241
0.00502853
0.00503296
0.00503739
0.00504182
0.00504625
0.00505069
0.00505513
0.00505957
0.00506401
0.00506845
0.0050729
0.00507735
0.0050818
0.00508625
0.0050907
0.00509516
0.00509962
0.00510408
0.00510854
0.005113
0.00511747
0.00512194
0.0051264
0.00513088
0.00513535
0.00513982
0.0051443
0.00514878
0.00515326
0.00515775
0.00516223
0.00516672
0.00517121
0.0051757
0.00518019
0.00518468
0.00518918
0.00519368
0.00519818
0.00520268
0.00520719
0.00521169
0.0052162
0.00522071
0.00522522
0.00522974
0.00523426
0.00523877
0.00524329
0.00524782
0.00525234
0.00525687
0.00526139
0.00526592
0.00527046
0.00527499
0.00527952
0.00528406
0.0052886
0.00529314
0.00529769
0.00530223
0.00530678
0.00531133
0.00531588
0.00532043
0.00532499
0.00532955
0.0053341
0.00533867
0.00534323
0.00534779
0.00535236
0.00535693
0.0053615
0.00536607
0.00537065
0.00537522
0.0053798
0.00538438
0.00538897
0.00539355
0.00539814
0.00540272
0.00540731
0.00541191
0.0054165
0.0054211
0.0054257
0.0054303
0.0054349
0.0054395
0.00544411
0.00544871
0.00545332
0.00545794
0.00546255
0.00546717
0.00547178
0.0054764
0.00548102
0.00548565
0.00549027
0.0054949
0.00549953
0.00550416
0.00550879
0.00551343
0.00551807
0.0055227
0.00552735
0.00553199
0.00553663
0.00554128
0.00554593
0.00555058
0.00555523
0.00555989
0.00556454
0.0055692
0.00557386
0.00557852
0.00558319
0.00558785
0.00559252
0.00559719
0.00560187
0.00560654
0.00561122
0.00561589
0.00562057
0.00562525
0.00562994
0.00563462
0.00563931
0.005644
0.00564869
0.00565339
0.00565808
0.00566278
0.00566748
0.00567218
0.00567688
0.00568159
0.0056863
0.00569101
0.00569572
0.00570043
0.00570514
0.00570986
0.00571458
0.0057193
0.00572402
0.00572875
0.00573348
0.0057382
0.00574293
0.00574767
0.0057524
0.00575714
0.00576188
0.00576662
0.00577136
0.0057761
0.00578085
0.0057856
0.00579035
0.0057951
0.00579985
0.00580461
0.00580937
0.00581413
0.00581889
0.00582365
0.00582842
0.00583319
0.00583796
0.00584273
0.0058475
0.00585228
0.00585705
0.00586183
0.00586661
0.0058714
0.00587618
0.00588097
0.00588576
0.00589055
0.00589534
0.00590014
0.00590493
0.00590973
0.00591453
0.00591934
0.00592414
0.00592895
0.00593376
0.00593857
0.00594338
0.00594819
0.00595301
0.00595783
0.00596265
0.00596747
0.0059723
0.00597712
0.00598195
0.00598678
0.00599161
0.00599645
0.00600128
0.00600612
0.00601096
0.0060158
0.00602064
0.00602549
0.00603034
0.00603519
0.00604004
0.00604489
0.00604975
0.0060546
0.00605946
0.00606432
0.00606919
0.00607405
0.00607892
0.00608379
0.00608866
0.00609353
0.00609841
0.00610328
0.00610816
0.00611304
0.00611793
0.00612281
0.0061277
0.00613259
0.00613748
0.00614237
0.00614726
0.00615216
0.00615706
0.00616196
0.00616686
0.00617176
0.00617667
0.00618158
0.00618649
0.0061914
0.00619631
0.00620123
0.00620615
0.00621107
0.00621599
0.00622091
0.00622584
0.00623076
0.00623569
0.00624063
0.00624556
0.00625049
0.00625543
0.00626037
0.00626531
0.00627025
0.0062752
0.00628015
0.0062851
0.00629005
0.006295
0.00629995
0.00630491
0.00630987
0.00631483
0.00631979
0.00632476
0.00632972
0.00633469
0.00633966
0.00634463
0.00634961
0.00635458
0.00635956
0.00636454
0.00636952
0.00637451
0.00637949
0.00638448
0.00638947
0.00639446
0.00639946
0.00640445
0.00640945
0.00641445
0.00641945
0.00642446
0.00642946
0.00643447
0.00643948
0.00644449
0.0064495
0.00645452
0.00645953
0.00646455
0.00646957
0.0064746
0.00647962
0.00648465