/*--------------------------------*- C++ -*----------------------------------*\
| =========                 |                                                 |
| \\      /  F ield         | OpenFOAM: The Open Source CFD Toolbox           |
|  \\    /   O peration     | Version:  2206                                  |
|   \\  /    A nd           | Website:  www.openfoam.com                      |
|    \\/     M anipulation  |                                                 |
\*---------------------------------------------------------------------------*/
FoamFile
{
    version     2.0;
    format      ascii;
    arch        "LSB;label=32;scalar=64";
    class       surfaceScalarField;
    location    "122";
    object      phi;
}
// * * * * * * * * * * * * * * * * * * * * * * * * * * * * * * * * * * * * * //

dimensions      [0 3 -1 0 0 0 0];

oriented        oriented;

internalField   nonuniform List<scalar> 
94990
(
-2.70018e-25
-8.24394e-25
-8.91763e-25
5.47687e-25
-1.90263e-24
9.82728e-25
-3.27711e-24
1.37387e-24
-5.07658e-24
1.83491e-24
-7.29407e-24
2.20342e-24
-9.90638e-24
2.59475e-24
-1.29028e-23
3.00206e-24
-1.63138e-23
3.41316e-24
-2.01242e-23
3.80424e-24
-2.4332e-23
4.20752e-24
-2.89422e-23
4.61092e-24
-3.39536e-23
5.00919e-24
-3.93651e-23
5.41195e-24
-4.51777e-23
5.81142e-24
-5.13913e-23
6.21405e-24
-5.80055e-23
6.61294e-24
-6.50206e-23
7.01595e-24
-7.24365e-23
7.41481e-24
-8.02534e-23
7.8177e-24
-8.84711e-23
8.21661e-24
-9.70896e-23
8.61944e-24
-1.06109e-22
9.01846e-24
-1.15529e-22
9.42115e-24
-1.2535e-22
9.82028e-24
-1.35572e-22
1.02229e-23
-1.46195e-22
1.06221e-23
-1.57219e-22
1.10245e-23
-1.68643e-22
1.14239e-23
-1.80469e-22
1.18262e-23
-1.92695e-22
1.22257e-23
-2.05322e-22
1.26279e-23
-2.1835e-22
1.30275e-23
-2.31779e-22
1.34296e-23
-2.45609e-22
1.38293e-23
-2.5984e-22
1.42313e-23
-2.74471e-22
1.46311e-23
-2.89503e-22
1.5033e-23
-3.04937e-22
1.54328e-23
-3.20771e-22
1.58347e-23
-3.37006e-22
1.62346e-23
-3.53641e-22
1.66364e-23
-3.70678e-22
1.70364e-23
-3.88116e-22
1.74381e-23
-4.05954e-22
1.78381e-23
-4.24193e-22
1.82399e-23
-4.42833e-22
1.86399e-23
-4.61874e-22
1.90416e-23
-4.81316e-22
1.94416e-23
-5.01159e-22
1.98433e-23
-5.21403e-22
2.02434e-23
-5.42047e-22
2.0645e-23
-5.63092e-22
2.10451e-23
-5.84539e-22
2.14467e-23
-6.06386e-22
2.18469e-23
-6.28634e-22
2.22484e-23
-6.51282e-22
2.26486e-23
-6.74332e-22
2.30501e-23
-6.97783e-22
2.34504e-23
-7.21634e-22
2.38519e-23
-7.45886e-22
2.42521e-23
-7.7054e-22
2.46536e-23
-7.95593e-22
2.50539e-23
-8.21048e-22
2.54553e-23
-8.46904e-22
2.58556e-23
-8.73161e-22
2.6257e-23
-8.99818e-22
2.66574e-23
-9.26877e-22
2.70587e-23
-9.54336e-22
2.74591e-23
-9.82196e-22
2.78605e-23
-1.01046e-21
2.82608e-23
-1.03912e-21
2.86622e-23
-1.06818e-21
2.90626e-23
-1.09764e-21
2.94639e-23
-1.12751e-21
2.98643e-23
-1.15777e-21
3.02656e-23
-1.18844e-21
3.06661e-23
-1.21951e-21
3.10674e-23
-1.25098e-21
3.14678e-23
-1.28284e-21
3.18691e-23
-1.31511e-21
3.22695e-23
-1.34778e-21
3.26708e-23
-1.38086e-21
3.30713e-23
-1.41433e-21
3.34725e-23
-1.4482e-21
3.3873e-23
-1.48247e-21
3.42743e-23
-1.51715e-21
3.46748e-23
-1.55223e-21
3.5076e-23
-1.5877e-21
3.54765e-23
-1.62358e-21
3.58777e-23
-1.65986e-21
3.62782e-23
-1.69654e-21
3.66794e-23
-1.73362e-21
3.708e-23
-1.7711e-21
3.74812e-23
-1.80898e-21
3.78817e-23
-1.84726e-21
3.82829e-23
-1.88595e-21
3.86834e-23
-1.92503e-21
3.90846e-23
-1.96451e-21
3.94852e-23
-2.0044e-21
3.98864e-23
-2.04469e-21
4.02869e-23
-2.08538e-21
4.06881e-23
-2.12646e-21
4.10886e-23
-2.16795e-21
4.14898e-23
-2.20984e-21
4.18904e-23
-2.25214e-21
4.22915e-23
-2.29483e-21
4.26921e-23
-2.33792e-21
4.30933e-23
-2.38141e-21
4.34938e-23
-2.42531e-21
4.3895e-23
-2.4696e-21
4.42956e-23
-2.5143e-21
4.46967e-23
-2.5594e-21
4.50973e-23
-2.6049e-21
4.54985e-23
-2.6508e-21
4.58991e-23
-2.6971e-21
4.63002e-23
-2.7438e-21
4.67008e-23
-2.7909e-21
4.71019e-23
-2.8384e-21
4.75025e-23
-2.8863e-21
4.79036e-23
-2.93461e-21
4.83043e-23
-2.98331e-21
4.87054e-23
-3.03242e-21
4.9106e-23
-3.08193e-21
4.95071e-23
-3.13183e-21
4.99077e-23
-3.18214e-21
5.03088e-23
-3.23285e-21
5.07095e-23
-3.28396e-21
5.11106e-23
-3.33547e-21
5.15112e-23
-3.38738e-21
5.19123e-23
-3.4397e-21
5.23129e-23
-3.49241e-21
5.2714e-23
-3.54553e-21
5.31147e-23
-3.59904e-21
5.35157e-23
-3.65296e-21
5.39164e-23
-3.70728e-21
5.43175e-23
-3.76199e-21
5.47181e-23
-3.81711e-21
5.51192e-23
-3.87263e-21
5.55199e-23
-3.92855e-21
5.59209e-23
-3.98487e-21
5.63216e-23
-4.0416e-21
5.67227e-23
-4.09872e-21
5.71233e-23
-4.15624e-21
5.75244e-23
-4.21417e-21
5.79251e-23
-4.2725e-21
5.83261e-23
-4.33122e-21
5.87268e-23
-4.39035e-21
5.91278e-23
-4.44988e-21
5.95285e-23
-4.50981e-21
5.99296e-23
-4.57014e-21
6.03303e-23
-4.63087e-21
6.07313e-23
-4.692e-21
6.1132e-23
-4.75353e-21
6.1533e-23
-4.81547e-21
6.19337e-23
-4.8778e-21
6.23348e-23
-4.94054e-21
6.27355e-23
-5.00367e-21
6.31365e-23
-5.06721e-21
6.35372e-23
-5.13115e-21
6.39382e-23
-5.19549e-21
6.43389e-23
-5.26023e-21
6.474e-23
-5.32537e-21
6.51407e-23
-5.39091e-21
6.55417e-23
-5.45685e-21
6.59424e-23
-5.52319e-21
6.63434e-23
-5.58994e-21
6.67441e-23
-5.65708e-21
6.71451e-23
-5.72463e-21
6.75459e-23
-5.79258e-21
6.79469e-23
-5.86092e-21
6.83476e-23
-5.92967e-21
6.87486e-23
-5.99882e-21
6.91493e-23
-6.06837e-21
6.95503e-23
-6.13832e-21
6.99511e-23
-6.20867e-21
7.03521e-23
-6.27943e-21
7.07528e-23
-6.35058e-21
7.11538e-23
-6.42213e-21
7.15545e-23
-6.49409e-21
7.19555e-23
-6.56645e-21
7.23563e-23
-6.6392e-21
7.27573e-23
-6.71236e-21
7.3158e-23
-6.78592e-21
7.3559e-23
-6.85988e-21
7.39597e-23
-6.93424e-21
7.43607e-23
-7.009e-21
7.47615e-23
-7.08416e-21
7.51624e-23
-7.15973e-21
7.55632e-23
-7.23569e-21
7.59642e-23
-7.31206e-21
7.63649e-23
-7.38882e-21
7.67659e-23
-7.46599e-21
7.71667e-23
-7.54356e-21
7.75676e-23
-7.62152e-21
7.79684e-23
-7.69989e-21
7.83694e-23
-7.77866e-21
7.87701e-23
-7.85783e-21
7.91711e-23
-7.93741e-21
7.95719e-23
-8.01738e-21
7.99728e-23
-8.09775e-21
8.03736e-23
-8.17853e-21
8.07746e-23
-8.2597e-21
8.11753e-23
-8.34128e-21
8.15763e-23
-8.42325e-21
8.19771e-23
-8.50563e-21
8.2378e-23
-8.58841e-21
8.27788e-23
-8.67159e-21
8.31797e-23
-8.75517e-21
8.35805e-23
-8.83915e-21
8.39815e-23
-8.92353e-21
8.43823e-23
-9.00832e-21
8.47832e-23
-9.0935e-21
8.5184e-23
-9.17909e-21
8.55849e-23
-9.26507e-21
8.59857e-23
-9.35146e-21
8.63867e-23
-9.43825e-21
8.67875e-23
-9.52543e-21
8.71884e-23
-9.61302e-21
8.75892e-23
-9.70101e-21
8.79901e-23
-9.7894e-21
8.83909e-23
-9.87819e-21
8.87919e-23
-9.96739e-21
8.91927e-23
-1.0057e-20
8.95936e-23
-1.0147e-20
8.99944e-23
-1.02374e-20
9.03953e-23
-1.03282e-20
9.07961e-23
-1.04194e-20
9.11971e-23
-1.0511e-20
9.15979e-23
-1.0603e-20
9.19988e-23
-1.06954e-20
9.23996e-23
-1.07882e-20
9.28005e-23
-1.08814e-20
9.32013e-23
-1.0975e-20
9.36022e-23
-1.1069e-20
9.40031e-23
-1.11634e-20
9.4404e-23
-1.12582e-20
9.48048e-23
-1.13534e-20
9.52057e-23
-1.1449e-20
9.56065e-23
-1.1545e-20
9.60074e-23
-1.16414e-20
9.64083e-23
-1.17382e-20
9.68092e-23
-1.18354e-20
9.721e-23
-1.1933e-20
9.76109e-23
-1.2031e-20
9.80117e-23
-1.21295e-20
9.84126e-23
-1.22283e-20
9.88135e-23
-1.23275e-20
9.92144e-23
-1.24271e-20
9.96152e-23
-1.25271e-20
1.00016e-22
-1.26275e-20
1.00417e-22
-1.27283e-20
1.00818e-22
-1.28296e-20
1.01219e-22
-1.29312e-20
1.0162e-22
-1.30332e-20
1.0202e-22
-1.31356e-20
1.02421e-22
-1.32384e-20
1.02822e-22
-1.33417e-20
1.03223e-22
-1.34453e-20
1.03624e-22
-1.35493e-20
1.04025e-22
-1.36537e-20
1.04426e-22
-1.37586e-20
1.04826e-22
-1.38638e-20
1.05227e-22
-1.39694e-20
1.05628e-22
-1.40755e-20
1.06029e-22
-1.41819e-20
1.0643e-22
-1.42887e-20
1.06831e-22
-1.43959e-20
1.07232e-22
-1.45036e-20
1.07633e-22
-1.46116e-20
1.08033e-22
-1.472e-20
1.08434e-22
-1.48289e-20
1.08835e-22
-1.49381e-20
1.09236e-22
-1.50478e-20
1.09637e-22
-1.51578e-20
1.10038e-22
-1.52682e-20
1.10439e-22
-1.53791e-20
1.10839e-22
-1.54903e-20
1.1124e-22
-1.5602e-20
1.11641e-22
-1.5714e-20
1.12042e-22
-1.58264e-20
1.12443e-22
-1.59393e-20
1.12844e-22
-1.60525e-20
1.13245e-22
-1.61662e-20
1.13646e-22
-1.62802e-20
1.14046e-22
-1.63947e-20
1.14447e-22
-1.65095e-20
1.14848e-22
-1.66248e-20
1.15249e-22
-1.67404e-20
1.1565e-22
-1.68565e-20
1.16051e-22
-1.69729e-20
1.16452e-22
-1.70898e-20
1.16852e-22
-1.7207e-20
1.17253e-22
-1.73247e-20
1.17654e-22
-1.74427e-20
1.18055e-22
-1.75612e-20
1.18456e-22
-1.768e-20
1.18857e-22
-1.77993e-20
1.19258e-22
-1.7919e-20
1.19659e-22
-1.8039e-20
1.20059e-22
-1.81595e-20
1.2046e-22
-1.82803e-20
1.20861e-22
-1.84016e-20
1.21262e-22
-1.85233e-20
1.21663e-22
-1.86453e-20
1.22064e-22
-1.87678e-20
1.22465e-22
-1.88906e-20
1.22865e-22
-1.90139e-20
1.23266e-22
-1.91376e-20
1.23667e-22
-1.92617e-20
1.24068e-22
-1.93861e-20
1.24469e-22
-1.9511e-20
1.2487e-22
-1.96363e-20
1.25271e-22
-1.97619e-20
1.25671e-22
-1.9888e-20
1.26072e-22
-2.00145e-20
1.26473e-22
-2.01413e-20
1.26874e-22
-2.02686e-20
1.27275e-22
-2.03963e-20
1.27676e-22
-2.05244e-20
1.28077e-22
-2.06529e-20
1.28478e-22
-2.07817e-20
1.28878e-22
-2.0911e-20
1.29279e-22
-2.10407e-20
1.2968e-22
-2.11708e-20
1.30081e-22
-2.13013e-20
1.30482e-22
-2.14321e-20
1.30883e-22
-2.15634e-20
1.31284e-22
-2.16951e-20
1.31684e-22
-2.18272e-20
1.32085e-22
-2.19597e-20
1.32486e-22
-2.20926e-20
1.32887e-22
-2.22258e-20
1.33288e-22
-2.23595e-20
1.33689e-22
-2.24936e-20
1.3409e-22
-2.26281e-20
1.34491e-22
-2.2763e-20
1.34891e-22
-2.28983e-20
1.35292e-22
-2.3034e-20
1.35693e-22
-2.31701e-20
1.36094e-22
-2.33066e-20
1.36495e-22
-2.34435e-20
1.36896e-22
-2.35808e-20
1.37297e-22
-2.37185e-20
1.37697e-22
-2.38566e-20
1.38098e-22
-2.39951e-20
1.38499e-22
-2.4134e-20
1.389e-22
-2.42733e-20
1.39301e-22
-2.4413e-20
1.39702e-22
-2.45531e-20
1.40103e-22
-2.46936e-20
1.40504e-22
-2.48345e-20
1.40904e-22
-2.49758e-20
1.41305e-22
-2.51175e-20
1.41706e-22
-2.52596e-20
1.42107e-22
-2.54021e-20
1.42508e-22
-2.5545e-20
1.42909e-22
-2.56883e-20
1.4331e-22
-2.5832e-20
1.4371e-22
-2.59761e-20
1.44111e-22
-2.61207e-20
1.44512e-22
-2.62656e-20
1.44913e-22
-2.64109e-20
1.45314e-22
-2.65566e-20
1.45715e-22
-2.67027e-20
1.46116e-22
-2.68492e-20
1.46516e-22
-2.69961e-20
1.46917e-22
-2.71435e-20
1.47318e-22
-2.72912e-20
1.47719e-22
-2.74393e-20
1.4812e-22
-2.75878e-20
1.48521e-22
-2.77367e-20
1.48922e-22
-2.78861e-20
1.49323e-22
-2.80358e-20
1.49723e-22
-2.81859e-20
1.50124e-22
-2.83364e-20
1.50525e-22
-2.84874e-20
1.50926e-22
-2.86387e-20
1.51327e-22
-2.87904e-20
1.51728e-22
-2.89425e-20
1.52129e-22
-2.90951e-20
1.5253e-22
-2.9248e-20
1.5293e-22
-2.94013e-20
1.53331e-22
-2.95551e-20
1.53732e-22
-2.97092e-20
1.54133e-22
-2.98637e-20
1.54534e-22
-3.00187e-20
1.54935e-22
-3.0174e-20
1.55336e-22
-3.03297e-20
1.55736e-22
-3.04859e-20
1.56137e-22
-3.06424e-20
1.56538e-22
-3.07994e-20
1.56939e-22
-3.09567e-20
1.5734e-22
-3.11144e-20
1.57741e-22
-3.12726e-20
1.58142e-22
-3.14311e-20
1.58542e-22
-3.15901e-20
1.58943e-22
-3.17494e-20
1.59344e-22
-3.19092e-20
1.59745e-22
-3.20693e-20
1.60146e-22
-3.22298e-20
1.60547e-22
-3.23908e-20
1.60948e-22
-3.25521e-20
1.61349e-22
-3.27139e-20
1.61749e-22
-3.2876e-20
1.6215e-22
-3.30386e-20
1.62551e-22
-3.32015e-20
1.62952e-22
-3.33649e-20
1.63353e-22
-3.35286e-20
1.63754e-22
-3.36928e-20
1.64155e-22
-3.38574e-20
1.64556e-22
-3.40223e-20
1.64956e-22
-3.41877e-20
1.65357e-22
-3.43534e-20
1.65758e-22
-3.45196e-20
1.66159e-22
-3.46861e-20
1.6656e-22
-3.48531e-20
1.66961e-22
-3.50205e-20
1.67361e-22
-3.51882e-20
1.67762e-22
-3.53564e-20
1.68163e-22
-3.5525e-20
1.68564e-22
-3.56939e-20
1.68965e-22
-3.58633e-20
1.69366e-22
-3.60331e-20
1.69767e-22
-3.62032e-20
1.70168e-22
-3.63738e-20
1.70568e-22
-3.65448e-20
1.70969e-22
-3.67161e-20
1.7137e-22
-3.68879e-20
1.71771e-22
-3.70601e-20
1.72172e-22
-3.72326e-20
1.72573e-22
-3.74056e-20
1.72974e-22
-3.7579e-20
1.73375e-22
-3.77528e-20
1.73775e-22
-3.79269e-20
1.74176e-22
-3.81015e-20
1.74577e-22
-3.82765e-20
1.74978e-22
-3.84519e-20
1.75379e-22
-3.86277e-20
1.7578e-22
-3.88038e-20
1.7618e-22
-3.89804e-20
1.76582e-22
-3.91574e-20
1.76982e-22
-3.93348e-20
1.77383e-22
-3.95126e-20
1.77784e-22
-3.96908e-20
1.78185e-22
-3.98693e-20
1.78586e-22
-4.00483e-20
1.78987e-22
-4.02277e-20
1.79387e-22
-4.04075e-20
1.79788e-22
-4.05877e-20
1.80189e-22
-4.07683e-20
1.8059e-22
-4.09493e-20
1.80991e-22
-4.11307e-20
1.81392e-22
-4.13125e-20
1.81793e-22
-4.14946e-20
1.82194e-22
-4.16772e-20
1.82594e-22
-4.18602e-20
1.82995e-22
-4.20436e-20
1.83396e-22
-4.22274e-20
1.83797e-22
-4.24116e-20
1.84198e-22
-4.25962e-20
1.84599e-22
-4.27812e-20
1.85e-22
-4.29666e-20
1.85401e-22
-4.31524e-20
1.85801e-22
-4.33386e-20
1.86202e-22
-4.35252e-20
1.86603e-22
-4.37122e-20
1.87004e-22
-4.38996e-20
1.87405e-22
-4.40874e-20
1.87806e-22
-4.42756e-20
1.88206e-22
-4.44643e-20
1.88608e-22
-4.46533e-20
1.89008e-22
-4.48427e-20
1.89409e-22
-4.50325e-20
1.8981e-22
-4.52227e-20
1.90211e-22
-4.54133e-20
1.90612e-22
-4.56043e-20
1.91013e-22
-4.57957e-20
1.91413e-22
-4.59875e-20
1.91814e-22
-4.61798e-20
1.92215e-22
-4.63724e-20
1.92616e-22
-4.65654e-20
1.93017e-22
-4.67588e-20
1.93418e-22
-4.69526e-20
1.93819e-22
-4.71468e-20
1.9422e-22
-4.73415e-20
1.9462e-22
-4.75365e-20
1.95021e-22
-4.77319e-20
1.95422e-22
-4.79277e-20
1.95823e-22
-4.8124e-20
1.96224e-22
-4.83206e-20
1.96625e-22
-4.85176e-20
1.97025e-22
-4.8715e-20
1.97427e-22
-4.89129e-20
1.97827e-22
-4.91111e-20
1.98228e-22
-4.93097e-20
1.98629e-22
-4.95087e-20
1.9903e-22
-4.97082e-20
1.99431e-22
-4.9908e-20
1.99832e-22
-5.01082e-20
2.00232e-22
-5.03089e-20
2.00633e-22
-5.05099e-20
2.01034e-22
-5.07113e-20
2.01435e-22
-5.09132e-20
2.01836e-22
-5.11154e-20
2.02237e-22
-5.13181e-20
2.02638e-22
-5.15211e-20
2.03039e-22
-5.17245e-20
2.03439e-22
-5.19284e-20
2.0384e-22
-5.21326e-20
2.04241e-22
-5.23373e-20
2.04642e-22
-5.25423e-20
2.05043e-22
-5.27477e-20
2.05444e-22
-5.29536e-20
2.05845e-22
-5.31598e-20
2.06246e-22
-5.33665e-20
2.06646e-22
-5.35735e-20
2.07047e-22
-5.3781e-20
2.07448e-22
-5.39888e-20
2.07849e-22
-5.41971e-20
2.0825e-22
-5.44057e-20
2.08651e-22
-5.46148e-20
2.09051e-22
-5.48242e-20
2.09453e-22
-5.50341e-20
2.09853e-22
-5.52443e-20
2.10254e-22
-5.5455e-20
2.10655e-22
-5.5666e-20
2.11056e-22
-5.58775e-20
2.11457e-22
-5.60894e-20
2.11858e-22
-5.63016e-20
2.12258e-22
-5.65143e-20
2.12659e-22
-5.67273e-20
2.1306e-22
-5.69408e-20
2.13461e-22
-5.71547e-20
2.13862e-22
-5.73689e-20
2.14263e-22
-5.75836e-20
2.14664e-22
-5.77986e-20
2.15065e-22
-5.80141e-20
2.15465e-22
-5.823e-20
2.15866e-22
-5.84462e-20
2.16267e-22
-5.86629e-20
2.16668e-22
-5.888e-20
2.17069e-22
-5.90974e-20
2.1747e-22
-5.93153e-20
2.1787e-22
-5.95336e-20
2.18272e-22
-5.97523e-20
2.18672e-22
-5.99713e-20
2.19073e-22
-6.01908e-20
2.19474e-22
-6.04107e-20
2.19875e-22
-6.0631e-20
2.20276e-22
-6.08516e-20
2.20677e-22
-6.10727e-20
2.21077e-22
-6.12942e-20
2.21479e-22
-6.15161e-20
2.21879e-22
-6.17383e-20
2.2228e-22
-6.1961e-20
2.22681e-22
-6.21841e-20
2.23082e-22
-6.24076e-20
2.23483e-22
-6.26315e-20
2.23884e-22
-6.28558e-20
2.24284e-22
-6.30804e-20
2.24685e-22
-6.33055e-20
2.25086e-22
-6.3531e-20
2.25487e-22
-6.37569e-20
2.25888e-22
-6.39832e-20
2.26289e-22
-6.42099e-20
2.2669e-22
-6.4437e-20
2.27091e-22
-6.46645e-20
2.27491e-22
-6.48924e-20
2.27892e-22
-6.51206e-20
2.28293e-22
-6.53493e-20
2.28694e-22
-6.55784e-20
2.29095e-22
-6.58079e-20
2.29496e-22
-6.60378e-20
2.29896e-22
-6.62681e-20
2.30298e-22
-6.64988e-20
2.30698e-22
-6.67299e-20
2.31099e-22
-6.69614e-20
2.315e-22
-6.71933e-20
2.31901e-22
-6.74256e-20
2.32302e-22
-6.76583e-20
2.32703e-22
-6.78914e-20
2.33103e-22
-6.81249e-20
2.33505e-22
-6.83588e-20
2.33905e-22
-6.85931e-20
2.34306e-22
-6.88278e-20
2.34707e-22
-6.9063e-20
2.35108e-22
-6.92985e-20
2.35509e-22
-6.95344e-20
2.3591e-22
-6.97707e-20
2.3631e-22
-7.00074e-20
2.36711e-22
-7.02445e-20
2.37112e-22
-7.0482e-20
2.37513e-22
-7.07199e-20
2.37914e-22
-7.09582e-20
2.38315e-22
-7.1197e-20
2.38715e-22
-7.14361e-20
2.39117e-22
-7.16756e-20
2.39517e-22
-7.19155e-20
2.39918e-22
-7.21558e-20
2.40319e-22
-7.23966e-20
2.4072e-22
-7.26377e-20
2.41121e-22
-7.28792e-20
2.41522e-22
-7.31211e-20
2.41922e-22
-7.33634e-20
2.42324e-22
-7.36062e-20
2.42724e-22
-7.38493e-20
2.43125e-22
-7.40928e-20
2.43526e-22
-7.43367e-20
2.43927e-22
-7.45811e-20
2.44328e-22
-7.48258e-20
2.44729e-22
-7.50709e-20
2.45129e-22
-7.53165e-20
2.45531e-22
-7.55624e-20
2.45931e-22
-7.58087e-20
2.46332e-22
-7.60555e-20
2.46733e-22
-7.63026e-20
2.47134e-22
-7.65501e-20
2.47535e-22
-7.67981e-20
2.47936e-22
-7.70464e-20
2.48336e-22
-7.72951e-20
2.48737e-22
-7.75443e-20
2.49138e-22
-7.77938e-20
2.49539e-22
-7.80437e-20
2.4994e-22
-7.82941e-20
2.50341e-22
-7.85448e-20
2.50741e-22
-7.8796e-20
2.51143e-22
-7.90475e-20
2.51543e-22
-7.92995e-20
2.51944e-22
-7.95518e-20
2.52345e-22
-7.98045e-20
2.52746e-22
-8.00577e-20
2.53147e-22
-8.03112e-20
2.53548e-22
-8.05652e-20
2.53948e-22
-8.08195e-20
2.5435e-22
-8.10743e-20
2.5475e-22
-8.13294e-20
2.55151e-22
-8.1585e-20
2.55552e-22
-8.18409e-20
2.55953e-22
-8.20973e-20
2.56354e-22
-8.2354e-20
2.56755e-22
-8.26112e-20
2.57155e-22
-8.28688e-20
2.57557e-22
-8.31267e-20
2.57957e-22
-8.33851e-20
2.58358e-22
-8.36438e-20
2.58759e-22
-8.3903e-20
2.5916e-22
-8.41626e-20
2.5956e-22
-8.44225e-20
2.59962e-22
-8.46829e-20
2.60362e-22
-8.49436e-20
2.60763e-22
-8.52048e-20
2.61164e-22
-8.54664e-20
2.61565e-22
-8.57283e-20
2.61966e-22
-8.59907e-20
2.62367e-22
-8.62535e-20
2.62767e-22
-8.65166e-20
2.63169e-22
-8.67802e-20
2.63569e-22
-8.70442e-20
2.6397e-22
-8.73085e-20
2.64371e-22
-8.75733e-20
2.64772e-22
-8.78385e-20
2.65173e-22
-8.81041e-20
2.65574e-22
-8.837e-20
2.65974e-22
-8.86364e-20
2.66376e-22
-8.89032e-20
2.66776e-22
-8.91704e-20
2.67177e-22
-8.94379e-20
2.67578e-22
-8.97059e-20
2.67979e-22
-8.99743e-20
2.6838e-22
-9.02431e-20
2.68781e-22
-9.05123e-20
2.69181e-22
-9.07818e-20
2.69583e-22
-9.10518e-20
2.69983e-22
-9.13222e-20
2.70384e-22
-9.1593e-20
2.70785e-22
-9.18642e-20
2.71186e-22
-9.21358e-20
2.71586e-22
-9.24077e-20
2.71988e-22
-9.26801e-20
2.72388e-22
-9.29529e-20
2.72789e-22
-9.32261e-20
2.7319e-22
-9.34997e-20
2.73591e-22
-9.37737e-20
2.73992e-22
-9.40481e-20
2.74393e-22
-9.43229e-20
2.74793e-22
-9.45981e-20
2.75195e-22
-9.48737e-20
2.75595e-22
-9.51497e-20
2.75996e-22
-9.54261e-20
2.76397e-22
-9.57029e-20
2.76798e-22
-9.59801e-20
2.77199e-22
-9.62577e-20
2.776e-22
-9.65357e-20
2.78e-22
-9.68141e-20
2.78402e-22
-9.70929e-20
2.78802e-22
-9.73721e-20
2.79203e-22
-9.76517e-20
2.79604e-22
-9.79317e-20
2.80005e-22
-9.82121e-20
2.80405e-22
-9.84929e-20
2.80807e-22
-9.87741e-20
2.81207e-22
-9.90557e-20
2.81608e-22
-9.93377e-20
2.82009e-22
-9.96201e-20
2.8241e-22
-9.99029e-20
2.82811e-22
-1.00186e-19
2.83212e-22
-1.0047e-19
2.83612e-22
-1.00754e-19
2.84014e-22
-1.01038e-19
2.84414e-22
-1.01323e-19
2.84815e-22
-1.01608e-19
2.85216e-22
-1.01894e-19
2.85617e-22
-1.0218e-19
2.86018e-22
-1.02466e-19
2.86419e-22
-1.02753e-19
2.86819e-22
-1.0304e-19
2.87221e-22
-1.03328e-19
2.87621e-22
-1.03616e-19
2.88022e-22
-1.03904e-19
2.88423e-22
-1.04193e-19
2.88824e-22
-1.04482e-19
2.89224e-22
-1.04772e-19
2.89626e-22
-1.05062e-19
2.90026e-22
-1.05352e-19
2.90428e-22
-1.05643e-19
2.90828e-22
-1.05935e-19
2.91229e-22
-1.06226e-19
2.9163e-22
-1.06518e-19
2.92031e-22
-1.06811e-19
2.92431e-22
-1.07103e-19
2.92833e-22
-1.07397e-19
2.93233e-22
-1.0769e-19
2.93634e-22
-1.07984e-19
2.94035e-22
-1.08279e-19
2.94436e-22
-1.08574e-19
2.94837e-22
-1.08869e-19
2.95238e-22
-1.09165e-19
2.95638e-22
-1.09461e-19
2.9604e-22
-1.09757e-19
2.9644e-22
-1.10054e-19
2.96841e-22
-1.10351e-19
2.97242e-22
-1.10649e-19
2.97643e-22
-1.10947e-19
2.98044e-22
-1.11245e-19
2.98445e-22
-1.11544e-19
2.98845e-22
-1.11843e-19
2.99247e-22
-1.12143e-19
2.99647e-22
-1.12443e-19
3.00048e-22
-1.12743e-19
3.00449e-22
-1.13044e-19
3.0085e-22
-1.13346e-19
3.0125e-22
-1.13647e-19
3.01652e-22
-1.13949e-19
3.02052e-22
-1.14252e-19
3.02454e-22
-1.14555e-19
3.02854e-22
-1.14858e-19
3.03255e-22
-1.15161e-19
3.03656e-22
-1.15466e-19
3.04057e-22
-1.1577e-19
3.04457e-22
-1.16075e-19
3.04859e-22
-1.1638e-19
3.05259e-22
-1.16686e-19
3.0566e-22
-1.16992e-19
3.06061e-22
-1.17298e-19
3.06462e-22
-1.17605e-19
3.06863e-22
-1.17912e-19
3.07264e-22
-1.1822e-19
3.07664e-22
-1.18528e-19
3.08066e-22
-1.18837e-19
3.08466e-22
-1.19145e-19
3.08867e-22
-1.19455e-19
3.09268e-22
-1.19764e-19
3.09669e-22
-1.20074e-19
3.10069e-22
-1.20385e-19
3.10471e-22
-1.20696e-19
3.10871e-22
-1.21007e-19
3.11273e-22
-1.21319e-19
3.11673e-22
-1.21631e-19
3.12074e-22
-1.21943e-19
3.12475e-22
-1.22256e-19
3.12876e-22
-1.22569e-19
3.13276e-22
-1.22883e-19
3.13678e-22
-1.23197e-19
3.14078e-22
-1.23512e-19
3.1448e-22
-1.23827e-19
3.1488e-22
-1.24142e-19
3.15281e-22
-1.24458e-19
3.15682e-22
-1.24774e-19
3.16083e-22
-1.2509e-19
3.16483e-22
-1.25407e-19
3.16885e-22
-1.25724e-19
3.17285e-22
-1.26042e-19
3.17686e-22
-1.2636e-19
3.18087e-22
-1.26679e-19
3.18488e-22
-1.26997e-19
3.18889e-22
-1.27317e-19
3.1929e-22
-1.27636e-19
3.1969e-22
-1.27956e-19
3.20092e-22
-1.28277e-19
3.20492e-22
-1.28598e-19
3.20893e-22
-1.28919e-19
3.21294e-22
-1.29241e-19
3.21695e-22
-1.29563e-19
3.22095e-22
-1.29885e-19
3.22497e-22
-1.30208e-19
3.22897e-22
-1.30532e-19
3.23299e-22
-1.30855e-19
3.23699e-22
-1.31179e-19
3.241e-22
-1.31504e-19
3.24501e-22
-1.31829e-19
3.24902e-22
-1.32154e-19
3.25302e-22
-1.3248e-19
3.25704e-22
-1.32806e-19
3.26104e-22
-1.33132e-19
3.26506e-22
-1.33459e-19
3.26906e-22
-1.33787e-19
3.27307e-22
-1.34114e-19
3.27708e-22
-1.34442e-19
3.28109e-22
-1.34771e-19
3.28509e-22
-1.351e-19
3.28911e-22
-1.35429e-19
3.29311e-22
-1.35759e-19
3.29712e-22
-1.36089e-19
3.30113e-22
-1.3642e-19
3.30514e-22
-1.3675e-19
3.30914e-22
-1.37082e-19
3.31316e-22
-1.37413e-19
3.31716e-22
-1.37746e-19
3.32118e-22
-1.38078e-19
3.32518e-22
-1.38411e-19
3.32919e-22
-1.38744e-19
3.3332e-22
-1.39078e-19
3.33721e-22
-1.39412e-19
3.34121e-22
-1.39747e-19
3.34523e-22
-1.40082e-19
3.34923e-22
-1.40417e-19
3.35325e-22
-1.40753e-19
3.35725e-22
-1.41089e-19
3.36126e-22
-1.41425e-19
3.36527e-22
-1.41762e-19
3.36928e-22
-1.421e-19
3.37328e-22
-1.42437e-19
3.3773e-22
-1.42775e-19
3.3813e-22
-1.43114e-19
3.38532e-22
-1.43453e-19
3.38932e-22
-1.43792e-19
3.39333e-22
-1.44132e-19
3.39734e-22
-1.44472e-19
3.40135e-22
-1.44813e-19
3.40535e-22
-1.45154e-19
3.40937e-22
-1.45495e-19
3.41337e-22
-1.45837e-19
3.41738e-22
-1.46179e-19
3.42139e-22
-1.46521e-19
3.4254e-22
-1.46864e-19
3.4294e-22
-1.47208e-19
3.43342e-22
-1.47551e-19
3.43742e-22
-1.47896e-19
3.44144e-22
-1.4824e-19
3.44544e-22
-1.48585e-19
3.44945e-22
-1.4893e-19
3.45346e-22
-1.49276e-19
3.45747e-22
-1.49622e-19
3.46147e-22
-1.49969e-19
3.46549e-22
-1.50316e-19
3.46949e-22
-1.50663e-19
3.47351e-22
-1.51011e-19
3.47751e-22
-1.51359e-19
3.48152e-22
-1.51708e-19
3.48553e-22
-1.52057e-19
3.48954e-22
-1.52406e-19
3.49354e-22
-1.52756e-19
3.49756e-22
-1.53106e-19
3.50156e-22
-1.53456e-19
3.50557e-22
-1.53807e-19
3.50958e-22
-1.54159e-19
3.51359e-22
-1.5451e-19
3.51759e-22
-1.54863e-19
3.52161e-22
-1.55215e-19
3.52561e-22
-1.55568e-19
3.52963e-22
-1.55921e-19
3.53363e-22
-1.56275e-19
3.53764e-22
-1.56629e-19
3.54165e-22
-1.56984e-19
3.54566e-22
-1.57339e-19
3.54966e-22
-1.57694e-19
3.55368e-22
-1.5805e-19
3.55768e-22
-1.58406e-19
3.5617e-22
-1.58763e-19
3.5657e-22
-1.5912e-19
3.56971e-22
-1.59477e-19
3.57372e-22
-1.59835e-19
3.57773e-22
-1.60193e-19
3.58173e-22
-1.60552e-19
3.58575e-22
-1.60911e-19
3.58975e-22
-1.6127e-19
3.59377e-22
-1.6163e-19
3.59777e-22
-1.6199e-19
3.60178e-22
-1.62351e-19
3.60579e-22
-1.62712e-19
3.6098e-22
-1.63073e-19
3.6138e-22
-1.63435e-19
3.61782e-22
-1.63797e-19
3.62182e-22
-1.64159e-19
3.62583e-22
-1.64522e-19
3.62984e-22
-1.64886e-19
3.63385e-22
-1.6525e-19
3.63785e-22
-1.65614e-19
3.64187e-22
-1.65978e-19
3.64587e-22
-1.66343e-19
3.64989e-22
-1.66709e-19
3.65389e-22
-1.67075e-19
3.6579e-22
-1.67441e-19
3.66191e-22
-1.67807e-19
3.66592e-22
-1.68174e-19
3.66992e-22
-1.68542e-19
3.67394e-22
-1.68909e-19
3.67794e-22
-1.69278e-19
3.68196e-22
-1.69646e-19
3.68596e-22
-1.70015e-19
3.68997e-22
-1.70385e-19
3.69398e-22
-1.70754e-19
3.69799e-22
-1.71125e-19
3.70199e-22
-1.71495e-19
3.70601e-22
-1.71866e-19
3.71001e-22
-1.72238e-19
3.71403e-22
-1.72609e-19
3.71803e-22
-1.72982e-19
3.72204e-22
-1.73354e-19
3.72604e-22
-1.73727e-19
3.73006e-22
-1.74101e-19
3.73406e-22
-1.74474e-19
3.73808e-22
-1.74849e-19
3.74208e-22
-1.75223e-19
3.74609e-22
-1.75598e-19
3.7501e-22
-1.75974e-19
3.75411e-22
-1.7635e-19
3.75811e-22
-1.76726e-19
3.76213e-22
-1.77102e-19
3.76613e-22
-1.77479e-19
3.77015e-22
-1.77857e-19
3.77415e-22
-1.78235e-19
3.77816e-22
-1.78613e-19
3.78217e-22
-1.78991e-19
3.78618e-22
-1.7937e-19
3.79018e-22
-1.7975e-19
3.7942e-22
-1.8013e-19
3.7982e-22
-1.8051e-19
3.80222e-22
-1.80891e-19
3.80622e-22
-1.81272e-19
3.81023e-22
-1.81653e-19
3.81423e-22
-1.82035e-19
3.81825e-22
-1.82417e-19
3.82225e-22
-1.828e-19
3.82627e-22
-1.83183e-19
3.83027e-22
-1.83566e-19
3.83429e-22
-1.8395e-19
3.83829e-22
-1.84334e-19
3.8423e-22
-1.84719e-19
3.8463e-22
-1.85104e-19
3.85032e-22
-1.85489e-19
3.85432e-22
-1.85875e-19
3.85834e-22
-1.86261e-19
3.86234e-22
-1.86648e-19
3.86635e-22
-1.87035e-19
3.87036e-22
-1.87422e-19
3.87437e-22
-1.8781e-19
3.87837e-22
-1.88199e-19
3.88239e-22
-1.88587e-19
3.88639e-22
-1.88976e-19
3.89041e-22
-1.89366e-19
3.89441e-22
-1.89755e-19
3.89842e-22
-1.90146e-19
3.90243e-22
-1.90536e-19
3.90644e-22
-1.90927e-19
3.91044e-22
-1.91319e-19
3.91446e-22
-1.91711e-19
3.91846e-22
-1.92103e-19
3.92248e-22
-1.92496e-19
3.92648e-22
-1.92889e-19
3.93049e-22
-1.93282e-19
3.93449e-22
-1.93676e-19
3.93851e-22
-1.9407e-19
3.94251e-22
-1.94465e-19
3.94653e-22
-1.9486e-19
3.95053e-22
-1.95255e-19
3.95455e-22
-1.95651e-19
3.95855e-22
-1.96047e-19
3.96256e-22
-1.96444e-19
3.96656e-22
-1.96841e-19
3.97058e-22
-1.97239e-19
3.97458e-22
-1.97636e-19
3.9786e-22
-1.98035e-19
3.9826e-22
-1.98433e-19
3.98661e-22
-1.98832e-19
3.99062e-22
-1.99232e-19
3.99463e-22
-1.99632e-19
3.99863e-22
-2.00032e-19
4.00265e-22
-2.00433e-19
4.00665e-22
-2.00834e-19
4.01067e-22
-2.01235e-19
4.01467e-22
-2.01637e-19
4.01868e-22
-2.02039e-19
4.02268e-22
-2.02442e-19
4.0267e-22
-2.02845e-19
4.0307e-22
-2.03249e-19
4.03472e-22
-2.03652e-19
4.03872e-22
-2.04057e-19
4.04274e-22
-2.04461e-19
4.04674e-22
-2.04867e-19
4.05075e-22
-2.05272e-19
4.05475e-22
-2.05678e-19
4.05877e-22
-2.06084e-19
4.06277e-22
-2.06491e-19
4.06679e-22
-2.06898e-19
4.07079e-22
-2.07305e-19
4.07481e-22
-2.07713e-19
4.07881e-22
-2.08122e-19
4.08282e-22
-2.0853e-19
4.08682e-22
-2.08939e-19
4.09084e-22
-2.09349e-19
4.09484e-22
-2.09759e-19
4.09886e-22
-2.10169e-19
4.10286e-22
-2.1058e-19
4.10687e-22
-2.10991e-19
4.11088e-22
-2.11402e-19
4.11489e-22
-2.11814e-19
4.11889e-22
-2.12226e-19
4.12291e-22
-2.12639e-19
4.12691e-22
-2.13052e-19
4.13093e-22
-2.13466e-19
4.13493e-22
-2.1388e-19
4.13894e-22
-2.14294e-19
4.14294e-22
-2.14709e-19
4.14696e-22
-2.15124e-19
4.15096e-22
-2.15539e-19
4.15498e-22
-2.15955e-19
4.15898e-22
-2.16371e-19
4.163e-22
-2.16788e-19
4.167e-22
-2.17205e-19
4.17101e-22
-2.17623e-19
4.17501e-22
-2.18041e-19
4.17903e-22
-2.18459e-19
4.18303e-22
-2.18878e-19
4.18705e-22
-2.19297e-19
4.19105e-22
-2.19716e-19
4.19507e-22
-2.20136e-19
4.19907e-22
-2.20556e-19
4.20308e-22
-2.20977e-19
4.20708e-22
-2.21398e-19
4.2111e-22
-2.2182e-19
4.2151e-22
-2.22242e-19
4.21912e-22
-2.22664e-19
4.22312e-22
-2.23087e-19
4.22713e-22
-2.2351e-19
4.23113e-22
-2.23933e-19
4.23515e-22
-2.24357e-19
4.23915e-22
-2.24781e-19
4.24317e-22
-2.25206e-19
4.24717e-22
-2.25631e-19
4.25119e-22
-2.26057e-19
4.25519e-22
-2.26483e-19
4.2592e-22
-2.26909e-19
4.2632e-22
-2.27336e-19
4.26722e-22
-2.27763e-19
4.27122e-22
-2.2819e-19
4.27524e-22
-2.28618e-19
4.27924e-22
-2.29047e-19
4.28326e-22
-2.29475e-19
4.28726e-22
-2.29905e-19
4.29127e-22
-2.30334e-19
4.29527e-22
-2.30764e-19
4.29929e-22
-2.31194e-19
4.30329e-22
-2.31625e-19
4.30731e-22
-2.32056e-19
4.31131e-22
-2.32488e-19
4.31533e-22
-2.3292e-19
4.31933e-22
-2.33352e-19
4.32334e-22
-2.33785e-19
4.32734e-22
-2.34218e-19
4.33136e-22
-2.34651e-19
4.33536e-22
-2.35085e-19
4.33938e-22
-2.3552e-19
4.34338e-22
-2.35954e-19
4.34739e-22
-2.3639e-19
4.35139e-22
-2.36825e-19
4.35541e-22
-2.37261e-19
4.35941e-22
-2.37697e-19
4.36343e-22
-2.38134e-19
4.36743e-22
-2.38571e-19
4.37145e-22
-2.39009e-19
4.37545e-22
-2.39447e-19
4.37946e-22
-2.39885e-19
4.38346e-22
-2.40324e-19
4.38748e-22
-2.40763e-19
4.39148e-22
-2.41203e-19
4.3955e-22
-2.41642e-19
4.3995e-22
-2.42083e-19
4.40352e-22
-2.42524e-19
4.40752e-22
-2.42965e-19
4.41153e-22
-2.43406e-19
4.41553e-22
-2.43848e-19
4.41955e-22
-2.44291e-19
4.42355e-22
-2.44733e-19
4.42757e-22
-2.45177e-19
4.43157e-22
-2.4562e-19
4.43559e-22
-2.46064e-19
4.43958e-22
-2.46508e-19
4.4436e-22
-2.46953e-19
4.4476e-22
-2.47398e-19
4.45162e-22
-2.47844e-19
4.45562e-22
-2.4829e-19
4.45964e-22
-2.48736e-19
4.46364e-22
-2.49183e-19
4.46765e-22
-2.4963e-19
4.47165e-22
-2.50078e-19
4.47567e-22
-2.50526e-19
4.47967e-22
-2.50974e-19
4.48369e-22
-2.51423e-19
4.48769e-22
-2.51872e-19
4.49171e-22
-2.52322e-19
4.49571e-22
-2.52772e-19
4.49972e-22
-2.53222e-19
4.50372e-22
-2.53673e-19
4.50774e-22
-2.54124e-19
4.51174e-22
-2.54575e-19
4.51576e-22
-2.55027e-19
4.51976e-22
-2.5548e-19
4.52378e-22
-2.55933e-19
4.52778e-22
-2.56386e-19
4.53179e-22
-2.56839e-19
4.53579e-22
-2.57293e-19
4.53981e-22
-2.57748e-19
4.54381e-22
-2.58202e-19
4.54783e-22
-2.58658e-19
4.55183e-22
-2.59113e-19
4.55584e-22
-2.59569e-19
4.55984e-22
-2.60026e-19
4.56386e-22
-2.60482e-19
4.56786e-22
-2.6094e-19
4.57188e-22
-2.61397e-19
4.57588e-22
-2.61855e-19
4.5799e-22
-2.62314e-19
4.5839e-22
-2.62772e-19
4.58791e-22
-2.63231e-19
4.59191e-22
-2.63691e-19
4.59593e-22
-2.64151e-19
4.59993e-22
-2.64611e-19
4.60395e-22
-2.65072e-19
4.60795e-22
-2.65533e-19
4.61197e-22
-2.65995e-19
4.61597e-22
-2.66457e-19
4.61998e-22
-2.66919e-19
4.62398e-22
-2.67382e-19
4.628e-22
-2.67845e-19
4.632e-22
-2.68309e-19
4.63602e-22
-2.68773e-19
4.64002e-22
-2.69237e-19
4.64404e-22
-2.69702e-19
4.64803e-22
-2.70167e-19
4.65205e-22
-2.70633e-19
4.65605e-22
-2.71099e-19
4.66007e-22
-2.71565e-19
4.66407e-22
-2.72032e-19
4.66809e-22
-2.72499e-19
4.67209e-22
-2.72967e-19
4.6761e-22
-2.73435e-19
4.6801e-22
-2.73904e-19
4.68412e-22
-2.74372e-19
4.68812e-22
-2.74842e-19
4.69214e-22
-2.75311e-19
4.69614e-22
-2.75781e-19
4.70016e-22