/*--------------------------------*- C++ -*----------------------------------*\
| =========                 |                                                 |
| \\      /  F ield         | OpenFOAM: The Open Source CFD Toolbox           |
|  \\    /   O peration     | Version:  2206                                  |
|   \\  /    A nd           | Website:  www.openfoam.com                      |
|    \\/     M anipulation  |                                                 |
\*---------------------------------------------------------------------------*/
FoamFile
{
    version     2.0;
    format      ascii;
    arch        "LSB;label=32;scalar=64";
    class       volVectorField;
    location    "122";
    object      U;
}
// * * * * * * * * * * * * * * * * * * * * * * * * * * * * * * * * * * * * * //

dimensions      [0 1 -1 0 0 0 0];

internalField   nonuniform List<vector> 
50000
(
(-1.82567e-12 2.41381e-06 -7.48951e-13)
(-3.30641e-12 6.26222e-06 4.9337e-14)
(-4.86055e-12 1.01873e-05 6.28004e-14)
(-6.56719e-12 1.41681e-05 6.24515e-14)
(-8.22626e-12 1.81672e-05 6.88426e-14)
(-1.00236e-11 2.21742e-05 6.5522e-14)
(-1.18092e-11 2.61854e-05 6.49168e-14)
(-1.35899e-11 3.01991e-05 6.54415e-14)
(-1.53595e-11 3.42144e-05 6.60168e-14)
(-1.71546e-11 3.82309e-05 6.5463e-14)
(-1.89403e-11 4.22481e-05 6.56306e-14)
(-2.07289e-11 4.62659e-05 6.57066e-14)
(-2.25191e-11 5.02842e-05 6.56291e-14)
(-2.43105e-11 5.43028e-05 6.56767e-14)
(-2.61016e-11 5.83216e-05 6.56526e-14)
(-2.7894e-11 6.23407e-05 6.56869e-14)
(-2.96865e-11 6.636e-05 6.56488e-14)
(-3.14796e-11 7.03794e-05 6.56903e-14)
(-3.32728e-11 7.4399e-05 6.56544e-14)
(-3.50664e-11 7.84186e-05 6.56897e-14)
(-3.68602e-11 8.24384e-05 6.56577e-14)
(-3.86542e-11 8.64582e-05 6.56889e-14)
(-4.04483e-11 9.04781e-05 6.56612e-14)
(-4.22427e-11 9.44981e-05 6.56877e-14)
(-4.40371e-11 9.85181e-05 6.56637e-14)
(-4.58317e-11 0.000102538 6.56867e-14)
(-4.76264e-11 0.000106558 6.56658e-14)
(-4.94212e-11 0.000110578 6.56856e-14)
(-5.1216e-11 0.000114599 6.56676e-14)
(-5.3011e-11 0.000118619 6.56846e-14)
(-5.4806e-11 0.000122639 6.5669e-14)
(-5.6601e-11 0.000126659 6.56838e-14)
(-5.83961e-11 0.000130679 6.56701e-14)
(-6.01913e-11 0.0001347 6.56831e-14)
(-6.19865e-11 0.00013872 6.5671e-14)
(-6.37818e-11 0.00014274 6.56825e-14)
(-6.55771e-11 0.000146761 6.56718e-14)
(-6.73725e-11 0.000150781 6.56819e-14)
(-6.91678e-11 0.000154801 6.56724e-14)
(-7.09632e-11 0.000158822 6.56814e-14)
(-7.27587e-11 0.000162842 6.56729e-14)
(-7.45541e-11 0.000166862 6.5681e-14)
(-7.63496e-11 0.000170883 6.56734e-14)
(-7.81451e-11 0.000174903 6.56807e-14)
(-7.99407e-11 0.000178924 6.56738e-14)
(-8.17362e-11 0.000182944 6.56803e-14)
(-8.35318e-11 0.000186965 6.56741e-14)
(-8.53274e-11 0.000190985 6.56801e-14)
(-8.7123e-11 0.000195005 6.56744e-14)
(-8.89186e-11 0.000199026 6.56798e-14)
(-9.07143e-11 0.000203046 6.56746e-14)
(-9.25099e-11 0.000207067 6.56796e-14)
(-9.43056e-11 0.000211087 6.56748e-14)
(-9.61013e-11 0.000215108 6.56794e-14)
(-9.78969e-11 0.000219128 6.5675e-14)
(-9.96926e-11 0.000223149 6.56792e-14)
(-1.01488e-10 0.000227169 6.56752e-14)
(-1.03284e-10 0.00023119 6.5679e-14)
(-1.0508e-10 0.00023521 6.56753e-14)
(-1.06876e-10 0.000239231 6.56789e-14)
(-1.08671e-10 0.000243251 6.56754e-14)
(-1.10467e-10 0.000247272 6.56788e-14)
(-1.12263e-10 0.000251292 6.56756e-14)
(-1.14059e-10 0.000255313 6.56787e-14)
(-1.15854e-10 0.000259333 6.56757e-14)
(-1.1765e-10 0.000263354 6.56786e-14)
(-1.19446e-10 0.000267374 6.56758e-14)
(-1.21242e-10 0.000271395 6.56785e-14)
(-1.23038e-10 0.000275415 6.56758e-14)
(-1.24833e-10 0.000279436 6.56784e-14)
(-1.26629e-10 0.000283456 6.56759e-14)
(-1.28425e-10 0.000287477 6.56783e-14)
(-1.30221e-10 0.000291497 6.5676e-14)
(-1.32017e-10 0.000295518 6.56782e-14)
(-1.33812e-10 0.000299538 6.5676e-14)
(-1.35608e-10 0.000303559 6.56782e-14)
(-1.37404e-10 0.000307579 6.56761e-14)
(-1.392e-10 0.0003116 6.56781e-14)
(-1.40996e-10 0.00031562 6.56761e-14)
(-1.42792e-10 0.000319641 6.5678e-14)
(-1.44588e-10 0.000323661 6.56762e-14)
(-1.46383e-10 0.000327682 6.5678e-14)
(-1.48179e-10 0.000331703 6.56762e-14)
(-1.49975e-10 0.000335723 6.56779e-14)
(-1.51771e-10 0.000339744 6.56763e-14)
(-1.53567e-10 0.000343764 6.56779e-14)
(-1.55363e-10 0.000347785 6.56763e-14)
(-1.57159e-10 0.000351805 6.56779e-14)
(-1.58954e-10 0.000355826 6.56763e-14)
(-1.6075e-10 0.000359846 6.56778e-14)
(-1.62546e-10 0.000363867 6.56764e-14)
(-1.64342e-10 0.000367887 6.56778e-14)
(-1.66138e-10 0.000371908 6.56764e-14)
(-1.67934e-10 0.000375929 6.56777e-14)
(-1.6973e-10 0.000379949 6.56764e-14)
(-1.71526e-10 0.00038397 6.56777e-14)
(-1.73322e-10 0.00038799 6.56765e-14)
(-1.75118e-10 0.000392011 6.56777e-14)
(-1.76913e-10 0.000396031 6.56765e-14)
(-1.78709e-10 0.000400052 6.56777e-14)
(-1.80505e-10 0.000404072 6.56765e-14)
(-1.82301e-10 0.000408093 6.56776e-14)
(-1.84097e-10 0.000412114 6.56765e-14)
(-1.85893e-10 0.000416134 6.56776e-14)
(-1.87689e-10 0.000420155 6.56765e-14)
(-1.89485e-10 0.000424175 6.56776e-14)
(-1.91281e-10 0.000428196 6.56766e-14)
(-1.93077e-10 0.000432216 6.56776e-14)
(-1.94873e-10 0.000436237 6.56766e-14)
(-1.96668e-10 0.000440257 6.56775e-14)
(-1.98464e-10 0.000444278 6.56766e-14)
(-2.0026e-10 0.000448299 6.56775e-14)
(-2.02056e-10 0.000452319 6.56766e-14)
(-2.03852e-10 0.00045634 6.56775e-14)
(-2.05648e-10 0.00046036 6.56766e-14)
(-2.07444e-10 0.000464381 6.56775e-14)
(-2.0924e-10 0.000468401 6.56766e-14)
(-2.11036e-10 0.000472422 6.56775e-14)
(-2.12832e-10 0.000476442 6.56767e-14)
(-2.14628e-10 0.000480463 6.56774e-14)
(-2.16424e-10 0.000484484 6.56767e-14)
(-2.1822e-10 0.000488504 6.56774e-14)
(-2.20016e-10 0.000492525 6.56767e-14)
(-2.21811e-10 0.000496545 6.56774e-14)
(-2.23607e-10 0.000500566 6.56767e-14)
(-2.25403e-10 0.000504586 6.56774e-14)
(-2.27199e-10 0.000508607 6.56767e-14)
(-2.28995e-10 0.000512628 6.56774e-14)
(-2.30791e-10 0.000516648 6.56767e-14)
(-2.32587e-10 0.000520669 6.56774e-14)
(-2.34383e-10 0.000524689 6.56767e-14)
(-2.36179e-10 0.00052871 6.56774e-14)
(-2.37975e-10 0.00053273 6.56767e-14)
(-2.39771e-10 0.000536751 6.56773e-14)
(-2.41567e-10 0.000540772 6.56767e-14)
(-2.43363e-10 0.000544792 6.56773e-14)
(-2.45159e-10 0.000548813 6.56768e-14)
(-2.46955e-10 0.000552833 6.56773e-14)
(-2.48751e-10 0.000556854 6.56768e-14)
(-2.50547e-10 0.000560874 6.56773e-14)
(-2.52343e-10 0.000564895 6.56768e-14)
(-2.54138e-10 0.000568916 6.56773e-14)
(-2.55934e-10 0.000572936 6.56768e-14)
(-2.5773e-10 0.000576957 6.56773e-14)
(-2.59526e-10 0.000580977 6.56768e-14)
(-2.61322e-10 0.000584998 6.56773e-14)
(-2.63118e-10 0.000589018 6.56768e-14)
(-2.64914e-10 0.000593039 6.56773e-14)
(-2.6671e-10 0.00059706 6.56768e-14)
(-2.68506e-10 0.00060108 6.56773e-14)
(-2.70302e-10 0.000605101 6.56768e-14)
(-2.72098e-10 0.000609121 6.56773e-14)
(-2.73894e-10 0.000613142 6.56768e-14)
(-2.7569e-10 0.000617162 6.56772e-14)
(-2.77486e-10 0.000621183 6.56768e-14)
(-2.79282e-10 0.000625204 6.56772e-14)
(-2.81078e-10 0.000629224 6.56768e-14)
(-2.82874e-10 0.000633245 6.56772e-14)
(-2.8467e-10 0.000637265 6.56768e-14)
(-2.86466e-10 0.000641286 6.56772e-14)
(-2.88262e-10 0.000645306 6.56768e-14)
(-2.90058e-10 0.000649327 6.56772e-14)
(-2.91854e-10 0.000653348 6.56768e-14)
(-2.93649e-10 0.000657368 6.56772e-14)
(-2.95445e-10 0.000661389 6.56768e-14)
(-2.97241e-10 0.000665409 6.56772e-14)
(-2.99037e-10 0.00066943 6.56768e-14)
(-3.00833e-10 0.00067345 6.56772e-14)
(-3.02629e-10 0.000677471 6.56769e-14)
(-3.04425e-10 0.000681492 6.56772e-14)
(-3.06221e-10 0.000685512 6.56769e-14)
(-3.08017e-10 0.000689533 6.56772e-14)
(-3.09813e-10 0.000693553 6.56769e-14)
(-3.11609e-10 0.000697574 6.56772e-14)
(-3.13405e-10 0.000701594 6.56769e-14)
(-3.15201e-10 0.000705615 6.56772e-14)
(-3.16997e-10 0.000709636 6.56769e-14)
(-3.18793e-10 0.000713656 6.56772e-14)
(-3.20589e-10 0.000717677 6.56769e-14)
(-3.22385e-10 0.000721697 6.56772e-14)
(-3.24181e-10 0.000725718 6.56769e-14)
(-3.25977e-10 0.000729739 6.56772e-14)
(-3.27773e-10 0.000733759 6.56769e-14)
(-3.29569e-10 0.00073778 6.56772e-14)
(-3.31365e-10 0.0007418 6.56769e-14)
(-3.33161e-10 0.000745821 6.56771e-14)
(-3.34957e-10 0.000749841 6.56769e-14)
(-3.36753e-10 0.000753862 6.56771e-14)
(-3.38549e-10 0.000757883 6.56769e-14)
(-3.40345e-10 0.000761903 6.56771e-14)
(-3.42141e-10 0.000765924 6.56769e-14)
(-3.43937e-10 0.000769944 6.56771e-14)
(-3.45732e-10 0.000773965 6.56769e-14)
(-3.47528e-10 0.000777985 6.56771e-14)
(-3.49324e-10 0.000782006 6.56769e-14)
(-3.5112e-10 0.000786027 6.56771e-14)
(-3.52916e-10 0.000790047 6.56769e-14)
(-3.54712e-10 0.000794068 6.56771e-14)
(-3.56508e-10 0.000798088 6.56769e-14)
(-3.58304e-10 0.000802109 6.56771e-14)
(-3.601e-10 0.00080613 6.56769e-14)
(-3.61896e-10 0.00081015 6.56771e-14)
(-3.63692e-10 0.000814171 6.56769e-14)
(-3.65488e-10 0.000818191 6.56771e-14)
(-3.67284e-10 0.000822212 6.56769e-14)
(-3.6908e-10 0.000826232 6.56771e-14)
(-3.70876e-10 0.000830253 6.56769e-14)
(-3.72672e-10 0.000834274 6.56771e-14)
(-3.74468e-10 0.000838294 6.56769e-14)
(-3.76264e-10 0.000842315 6.56771e-14)
(-3.7806e-10 0.000846335 6.56769e-14)
(-3.79856e-10 0.000850356 6.56771e-14)
(-3.81652e-10 0.000854376 6.56769e-14)
(-3.83448e-10 0.000858397 6.56771e-14)
(-3.85244e-10 0.000862418 6.56769e-14)
(-3.8704e-10 0.000866438 6.56771e-14)
(-3.88836e-10 0.000870459 6.56769e-14)
(-3.90632e-10 0.000874479 6.56771e-14)
(-3.92428e-10 0.0008785 6.56769e-14)
(-3.94224e-10 0.000882521 6.56771e-14)
(-3.9602e-10 0.000886541 6.56769e-14)
(-3.97816e-10 0.000890562 6.56771e-14)
(-3.99612e-10 0.000894582 6.56769e-14)
(-4.01408e-10 0.000898603 6.56771e-14)
(-4.03204e-10 0.000902623 6.56769e-14)
(-4.05e-10 0.000906644 6.56771e-14)
(-4.06796e-10 0.000910665 6.56769e-14)
(-4.08592e-10 0.000914685 6.56771e-14)
(-4.10388e-10 0.000918706 6.56769e-14)
(-4.12184e-10 0.000922726 6.56771e-14)
(-4.13979e-10 0.000926747 6.56769e-14)
(-4.15775e-10 0.000930768 6.5677e-14)
(-4.17571e-10 0.000934788 6.56769e-14)
(-4.19367e-10 0.000938809 6.5677e-14)
(-4.21163e-10 0.000942829 6.56769e-14)
(-4.22959e-10 0.00094685 6.5677e-14)
(-4.24755e-10 0.00095087 6.56769e-14)
(-4.26551e-10 0.000954891 6.5677e-14)
(-4.28347e-10 0.000958912 6.5677e-14)
(-4.30143e-10 0.000962932 6.5677e-14)
(-4.31939e-10 0.000966953 6.56769e-14)
(-4.33735e-10 0.000970973 6.5677e-14)
(-4.35531e-10 0.000974994 6.56769e-14)
(-4.37327e-10 0.000979014 6.5677e-14)
(-4.39123e-10 0.000983035 6.56769e-14)
(-4.40919e-10 0.000987056 6.5677e-14)
(-4.42715e-10 0.000991076 6.5677e-14)
(-4.44511e-10 0.000995097 6.5677e-14)
(-4.46307e-10 0.000999117 6.56769e-14)
(-4.48103e-10 0.00100314 6.5677e-14)
(-4.49899e-10 0.00100716 6.5677e-14)
(-4.51695e-10 0.00101118 6.5677e-14)
(-4.53491e-10 0.0010152 6.5677e-14)
(-4.55287e-10 0.00101922 6.5677e-14)
(-4.57083e-10 0.00102324 6.5677e-14)
(-4.58879e-10 0.00102726 6.5677e-14)
(-4.60675e-10 0.00103128 6.5677e-14)
(-4.62471e-10 0.0010353 6.5677e-14)
(-4.64267e-10 0.00103932 6.5677e-14)
(-4.66063e-10 0.00104334 6.5677e-14)
(-4.67859e-10 0.00104736 6.5677e-14)
(-4.69655e-10 0.00105138 6.5677e-14)
(-4.71451e-10 0.00105541 6.5677e-14)
(-4.73247e-10 0.00105943 6.5677e-14)
(-4.75043e-10 0.00106345 6.5677e-14)
(-4.76839e-10 0.00106747 6.5677e-14)
(-4.78635e-10 0.00107149 6.5677e-14)
(-4.80431e-10 0.00107551 6.5677e-14)
(-4.82227e-10 0.00107953 6.5677e-14)
(-4.84023e-10 0.00108355 6.5677e-14)
(-4.85819e-10 0.00108757 6.5677e-14)
(-4.87615e-10 0.00109159 6.5677e-14)
(-4.89411e-10 0.00109561 6.5677e-14)
(-4.91207e-10 0.00109963 6.5677e-14)
(-4.93003e-10 0.00110365 6.5677e-14)
(-4.94799e-10 0.00110767 6.5677e-14)
(-4.96595e-10 0.00111169 6.5677e-14)
(-4.98391e-10 0.00111571 6.5677e-14)
(-5.00187e-10 0.00111973 6.5677e-14)
(-5.01982e-10 0.00112376 6.5677e-14)
(-5.03778e-10 0.00112778 6.5677e-14)
(-5.05574e-10 0.0011318 6.5677e-14)
(-5.0737e-10 0.00113582 6.5677e-14)
(-5.09166e-10 0.00113984 6.5677e-14)
(-5.10962e-10 0.00114386 6.5677e-14)
(-5.12758e-10 0.00114788 6.5677e-14)
(-5.14554e-10 0.0011519 6.5677e-14)
(-5.1635e-10 0.00115592 6.5677e-14)
(-5.18146e-10 0.00115994 6.5677e-14)
(-5.19942e-10 0.00116396 6.5677e-14)
(-5.21738e-10 0.00116798 6.5677e-14)
(-5.23534e-10 0.001172 6.5677e-14)
(-5.2533e-10 0.00117602 6.5677e-14)
(-5.27126e-10 0.00118004 6.5677e-14)
(-5.28922e-10 0.00118406 6.5677e-14)
(-5.30718e-10 0.00118808 6.5677e-14)
(-5.32514e-10 0.00119211 6.5677e-14)
(-5.3431e-10 0.00119613 6.5677e-14)
(-5.36106e-10 0.00120015 6.5677e-14)
(-5.37902e-10 0.00120417 6.5677e-14)
(-5.39698e-10 0.00120819 6.5677e-14)
(-5.41494e-10 0.00121221 6.5677e-14)
(-5.4329e-10 0.00121623 6.5677e-14)
(-5.45086e-10 0.00122025 6.5677e-14)
(-5.46882e-10 0.00122427 6.5677e-14)
(-5.48678e-10 0.00122829 6.5677e-14)
(-5.50474e-10 0.00123231 6.5677e-14)
(-5.5227e-10 0.00123633 6.5677e-14)
(-5.54066e-10 0.00124035 6.5677e-14)
(-5.55862e-10 0.00124437 6.5677e-14)
(-5.57658e-10 0.00124839 6.5677e-14)
(-5.59454e-10 0.00125241 6.5677e-14)
(-5.6125e-10 0.00125643 6.5677e-14)
(-5.63046e-10 0.00126046 6.5677e-14)
(-5.64842e-10 0.00126448 6.5677e-14)
(-5.66638e-10 0.0012685 6.5677e-14)
(-5.68434e-10 0.00127252 6.5677e-14)
(-5.7023e-10 0.00127654 6.5677e-14)
(-5.72026e-10 0.00128056 6.5677e-14)
(-5.73822e-10 0.00128458 6.5677e-14)
(-5.75618e-10 0.0012886 6.5677e-14)
(-5.77414e-10 0.00129262 6.5677e-14)
(-5.7921e-10 0.00129664 6.5677e-14)
(-5.81006e-10 0.00130066 6.56769e-14)
(-5.82802e-10 0.00130468 6.5677e-14)
(-5.84598e-10 0.0013087 6.56769e-14)
(-5.86394e-10 0.00131272 6.5677e-14)
(-5.8819e-10 0.00131674 6.56769e-14)
(-5.89986e-10 0.00132076 6.5677e-14)
(-5.91782e-10 0.00132478 6.56769e-14)
(-5.93578e-10 0.00132881 6.5677e-14)
(-5.95374e-10 0.00133283 6.56769e-14)
(-5.9717e-10 0.00133685 6.5677e-14)
(-5.98966e-10 0.00134087 6.56769e-14)
(-6.00762e-10 0.00134489 6.5677e-14)
(-6.02558e-10 0.00134891 6.56769e-14)
(-6.04354e-10 0.00135293 6.5677e-14)
(-6.0615e-10 0.00135695 6.56769e-14)
(-6.07946e-10 0.00136097 6.5677e-14)
(-6.09741e-10 0.00136499 6.56769e-14)
(-6.11537e-10 0.00136901 6.5677e-14)
(-6.13333e-10 0.00137303 6.56769e-14)
(-6.15129e-10 0.00137705 6.5677e-14)
(-6.16925e-10 0.00138107 6.56769e-14)
(-6.18721e-10 0.00138509 6.5677e-14)
(-6.20517e-10 0.00138911 6.56769e-14)
(-6.22313e-10 0.00139313 6.5677e-14)
(-6.24109e-10 0.00139716 6.56769e-14)
(-6.25905e-10 0.00140118 6.5677e-14)
(-6.27701e-10 0.0014052 6.56769e-14)
(-6.29497e-10 0.00140922 6.5677e-14)
(-6.31293e-10 0.00141324 6.56769e-14)
(-6.33089e-10 0.00141726 6.5677e-14)
(-6.34885e-10 0.00142128 6.56769e-14)
(-6.36681e-10 0.0014253 6.5677e-14)
(-6.38477e-10 0.00142932 6.56769e-14)
(-6.40273e-10 0.00143334 6.5677e-14)
(-6.42069e-10 0.00143736 6.56769e-14)
(-6.43865e-10 0.00144138 6.5677e-14)
(-6.45661e-10 0.0014454 6.56769e-14)
(-6.47457e-10 0.00144942 6.5677e-14)
(-6.49253e-10 0.00145344 6.56769e-14)
(-6.51049e-10 0.00145746 6.5677e-14)
(-6.52845e-10 0.00146148 6.56769e-14)
(-6.54641e-10 0.00146551 6.5677e-14)
(-6.56437e-10 0.00146953 6.56769e-14)
(-6.58233e-10 0.00147355 6.5677e-14)
(-6.60029e-10 0.00147757 6.56769e-14)
(-6.61825e-10 0.00148159 6.5677e-14)
(-6.63621e-10 0.00148561 6.56769e-14)
(-6.65417e-10 0.00148963 6.5677e-14)
(-6.67213e-10 0.00149365 6.56769e-14)
(-6.69009e-10 0.00149767 6.5677e-14)
(-6.70805e-10 0.00150169 6.56769e-14)
(-6.72601e-10 0.00150571 6.5677e-14)
(-6.74397e-10 0.00150973 6.56769e-14)
(-6.76193e-10 0.00151375 6.5677e-14)
(-6.77989e-10 0.00151777 6.56769e-14)
(-6.79785e-10 0.00152179 6.5677e-14)
(-6.81581e-10 0.00152581 6.56769e-14)
(-6.83377e-10 0.00152983 6.5677e-14)
(-6.85173e-10 0.00153386 6.56769e-14)
(-6.86969e-10 0.00153788 6.5677e-14)
(-6.88765e-10 0.0015419 6.56769e-14)
(-6.90561e-10 0.00154592 6.5677e-14)
(-6.92357e-10 0.00154994 6.56769e-14)
(-6.94153e-10 0.00155396 6.5677e-14)
(-6.95949e-10 0.00155798 6.56769e-14)
(-6.97745e-10 0.001562 6.5677e-14)
(-6.99541e-10 0.00156602 6.56769e-14)
(-7.01337e-10 0.00157004 6.5677e-14)
(-7.03133e-10 0.00157406 6.56769e-14)
(-7.04929e-10 0.00157808 6.5677e-14)
(-7.06725e-10 0.0015821 6.56769e-14)
(-7.08521e-10 0.00158612 6.5677e-14)
(-7.10317e-10 0.00159014 6.56769e-14)
(-7.12113e-10 0.00159416 6.5677e-14)
(-7.13909e-10 0.00159818 6.56769e-14)
(-7.15705e-10 0.00160221 6.5677e-14)
(-7.17501e-10 0.00160623 6.56769e-14)
(-7.19297e-10 0.00161025 6.5677e-14)
(-7.21093e-10 0.00161427 6.56769e-14)
(-7.22889e-10 0.00161829 6.5677e-14)
(-7.24685e-10 0.00162231 6.56769e-14)
(-7.26481e-10 0.00162633 6.5677e-14)
(-7.28277e-10 0.00163035 6.56769e-14)
(-7.30073e-10 0.00163437 6.5677e-14)
(-7.31869e-10 0.00163839 6.56769e-14)
(-7.33665e-10 0.00164241 6.5677e-14)
(-7.35461e-10 0.00164643 6.56769e-14)
(-7.37257e-10 0.00165045 6.5677e-14)
(-7.39052e-10 0.00165447 6.56769e-14)
(-7.40848e-10 0.00165849 6.5677e-14)
(-7.42644e-10 0.00166251 6.56769e-14)
(-7.4444e-10 0.00166653 6.5677e-14)
(-7.46236e-10 0.00167056 6.56769e-14)
(-7.48032e-10 0.00167458 6.5677e-14)
(-7.49828e-10 0.0016786 6.56769e-14)
(-7.51624e-10 0.00168262 6.5677e-14)
(-7.5342e-10 0.00168664 6.56769e-14)
(-7.55216e-10 0.00169066 6.5677e-14)
(-7.57012e-10 0.00169468 6.56769e-14)
(-7.58808e-10 0.0016987 6.5677e-14)
(-7.60604e-10 0.00170272 6.56769e-14)
(-7.624e-10 0.00170674 6.5677e-14)
(-7.64196e-10 0.00171076 6.56769e-14)
(-7.65992e-10 0.00171478 6.5677e-14)
(-7.67788e-10 0.0017188 6.56769e-14)
(-7.69584e-10 0.00172282 6.5677e-14)
(-7.7138e-10 0.00172684 6.56769e-14)
(-7.73176e-10 0.00173086 6.5677e-14)
(-7.74972e-10 0.00173488 6.56769e-14)
(-7.76768e-10 0.0017389 6.5677e-14)
(-7.78564e-10 0.00174293 6.56769e-14)
(-7.8036e-10 0.00174695 6.5677e-14)
(-7.82156e-10 0.00175097 6.56769e-14)
(-7.83952e-10 0.00175499 6.5677e-14)
(-7.85748e-10 0.00175901 6.56769e-14)
(-7.87544e-10 0.00176303 6.5677e-14)
(-7.8934e-10 0.00176705 6.56769e-14)
(-7.91136e-10 0.00177107 6.5677e-14)
(-7.92932e-10 0.00177509 6.56769e-14)
(-7.94728e-10 0.00177911 6.5677e-14)
(-7.96524e-10 0.00178313 6.56769e-14)
(-7.9832e-10 0.00178715 6.5677e-14)
(-8.00116e-10 0.00179117 6.56769e-14)
(-8.01912e-10 0.00179519 6.5677e-14)
(-8.03708e-10 0.00179921 6.56769e-14)
(-8.05504e-10 0.00180323 6.5677e-14)
(-8.073e-10 0.00180725 6.56769e-14)
(-8.09096e-10 0.00181128 6.5677e-14)
(-8.10892e-10 0.0018153 6.56769e-14)
(-8.12688e-10 0.00181932 6.5677e-14)
(-8.14484e-10 0.00182334 6.56769e-14)
(-8.1628e-10 0.00182736 6.5677e-14)
(-8.18076e-10 0.00183138 6.56769e-14)
(-8.19872e-10 0.0018354 6.5677e-14)
(-8.21668e-10 0.00183942 6.56769e-14)
(-8.23464e-10 0.00184344 6.5677e-14)
(-8.2526e-10 0.00184746 6.56769e-14)
(-8.27056e-10 0.00185148 6.5677e-14)
(-8.28852e-10 0.0018555 6.56769e-14)
(-8.30648e-10 0.00185952 6.5677e-14)
(-8.32444e-10 0.00186354 6.56769e-14)
(-8.3424e-10 0.00186756 6.5677e-14)
(-8.36036e-10 0.00187158 6.56769e-14)
(-8.37832e-10 0.0018756 6.5677e-14)
(-8.39628e-10 0.00187963 6.56769e-14)
(-8.41424e-10 0.00188365 6.5677e-14)
(-8.4322e-10 0.00188767 6.56769e-14)
(-8.45016e-10 0.00189169 6.5677e-14)
(-8.46812e-10 0.00189571 6.56769e-14)
(-8.48608e-10 0.00189973 6.5677e-14)
(-8.50404e-10 0.00190375 6.56769e-14)
(-8.522e-10 0.00190777 6.5677e-14)
(-8.53996e-10 0.00191179 6.56769e-14)
(-8.55792e-10 0.00191581 6.5677e-14)
(-8.57588e-10 0.00191983 6.56769e-14)
(-8.59384e-10 0.00192385 6.5677e-14)
(-8.6118e-10 0.00192787 6.56769e-14)
(-8.62976e-10 0.00193189 6.5677e-14)
(-8.64772e-10 0.00193591 6.56769e-14)
(-8.66568e-10 0.00193993 6.5677e-14)
(-8.68364e-10 0.00194395 6.56769e-14)
(-8.7016e-10 0.00194798 6.5677e-14)
(-8.71956e-10 0.001952 6.56769e-14)
(-8.73752e-10 0.00195602 6.5677e-14)
(-8.75548e-10 0.00196004 6.56769e-14)
(-8.77344e-10 0.00196406 6.5677e-14)
(-8.7914e-10 0.00196808 6.56769e-14)
(-8.80936e-10 0.0019721 6.5677e-14)
(-8.82732e-10 0.00197612 6.56769e-14)
(-8.84528e-10 0.00198014 6.5677e-14)
(-8.86323e-10 0.00198416 6.56769e-14)
(-8.88119e-10 0.00198818 6.5677e-14)
(-8.89915e-10 0.0019922 6.56769e-14)
(-8.91711e-10 0.00199622 6.5677e-14)
(-8.93507e-10 0.00200024 6.56769e-14)
(-8.95303e-10 0.00200426 6.5677e-14)
(-8.97099e-10 0.00200828 6.56769e-14)
(-8.98895e-10 0.0020123 6.5677e-14)
(-9.00691e-10 0.00201633 6.56769e-14)
(-9.02487e-10 0.00202035 6.5677e-14)
(-9.04283e-10 0.00202437 6.56769e-14)
(-9.06079e-10 0.00202839 6.5677e-14)
(-9.07875e-10 0.00203241 6.56769e-14)
(-9.09671e-10 0.00203643 6.5677e-14)
(-9.11467e-10 0.00204045 6.56769e-14)
(-9.13263e-10 0.00204447 6.5677e-14)
(-9.15059e-10 0.00204849 6.56769e-14)
(-9.16855e-10 0.00205251 6.5677e-14)
(-9.18651e-10 0.00205653 6.56768e-14)
(-9.20447e-10 0.00206055 6.5677e-14)
(-9.22243e-10 0.00206457 6.56769e-14)
(-9.24039e-10 0.00206859 6.5677e-14)
(-9.25835e-10 0.00207261 6.56769e-14)
(-9.27631e-10 0.00207663 6.5677e-14)
(-9.29427e-10 0.00208065 6.56769e-14)
(-9.31223e-10 0.00208468 6.5677e-14)
(-9.33019e-10 0.0020887 6.56768e-14)
(-9.34815e-10 0.00209272 6.5677e-14)
(-9.36611e-10 0.00209674 6.56768e-14)
(-9.38407e-10 0.00210076 6.5677e-14)
(-9.40203e-10 0.00210478 6.56769e-14)
(-9.41999e-10 0.0021088 6.5677e-14)
(-9.43795e-10 0.00211282 6.56768e-14)
(-9.45591e-10 0.00211684 6.5677e-14)
(-9.47387e-10 0.00212086 6.56769e-14)
(-9.49183e-10 0.00212488 6.5677e-14)
(-9.50979e-10 0.0021289 6.56768e-14)
(-9.52775e-10 0.00213292 6.5677e-14)
(-9.54571e-10 0.00213694 6.56768e-14)
(-9.56367e-10 0.00214096 6.5677e-14)
(-9.58163e-10 0.00214498 6.56768e-14)
(-9.59959e-10 0.002149 6.5677e-14)
(-9.61755e-10 0.00215303 6.56768e-14)
(-9.63551e-10 0.00215705 6.5677e-14)
(-9.65347e-10 0.00216107 6.56768e-14)
(-9.67143e-10 0.00216509 6.5677e-14)
(-9.68939e-10 0.00216911 6.56768e-14)
(-9.70735e-10 0.00217313 6.5677e-14)
(-9.72531e-10 0.00217715 6.56769e-14)
(-9.74327e-10 0.00218117 6.5677e-14)
(-9.76123e-10 0.00218519 6.56768e-14)
(-9.77919e-10 0.00218921 6.5677e-14)
(-9.79715e-10 0.00219323 6.56768e-14)
(-9.81511e-10 0.00219725 6.5677e-14)
(-9.83307e-10 0.00220127 6.56768e-14)
(-9.85103e-10 0.00220529 6.5677e-14)
(-9.86899e-10 0.00220931 6.56768e-14)
(-9.88695e-10 0.00221333 6.5677e-14)
(-9.90491e-10 0.00221735 6.56768e-14)
(-9.92287e-10 0.00222138 6.5677e-14)
(-9.94083e-10 0.0022254 6.56768e-14)
(-9.95879e-10 0.00222942 6.5677e-14)
(-9.97675e-10 0.00223344 6.56768e-14)
(-9.99471e-10 0.00223746 6.5677e-14)
(-1.00127e-09 0.00224148 6.56768e-14)
(-1.00306e-09 0.0022455 6.5677e-14)
(-1.00486e-09 0.00224952 6.56768e-14)
(-1.00665e-09 0.00225354 6.5677e-14)
(-1.00845e-09 0.00225756 6.56768e-14)
(-1.01025e-09 0.00226158 6.5677e-14)
(-1.01204e-09 0.0022656 6.56768e-14)
(-1.01384e-09 0.00226962 6.5677e-14)
(-1.01563e-09 0.00227364 6.56768e-14)
(-1.01743e-09 0.00227766 6.5677e-14)
(-1.01923e-09 0.00228168 6.56768e-14)
(-1.02102e-09 0.0022857 6.5677e-14)
(-1.02282e-09 0.00228973 6.56768e-14)
(-1.02461e-09 0.00229375 6.5677e-14)
(-1.02641e-09 0.00229777 6.56768e-14)
(-1.02821e-09 0.00230179 6.5677e-14)
(-1.03e-09 0.00230581 6.56768e-14)
(-1.0318e-09 0.00230983 6.5677e-14)
(-1.03359e-09 0.00231385 6.56768e-14)
(-1.03539e-09 0.00231787 6.5677e-14)
(-1.03719e-09 0.00232189 6.56768e-14)
(-1.03898e-09 0.00232591 6.5677e-14)
(-1.04078e-09 0.00232993 6.56768e-14)
(-1.04257e-09 0.00233395 6.5677e-14)
(-1.04437e-09 0.00233797 6.56768e-14)
(-1.04617e-09 0.00234199 6.5677e-14)
(-1.04796e-09 0.00234601 6.56768e-14)
(-1.04976e-09 0.00235003 6.5677e-14)
(-1.05155e-09 0.00235405 6.56768e-14)
(-1.05335e-09 0.00235808 6.5677e-14)
(-1.05515e-09 0.0023621 6.56768e-14)
(-1.05694e-09 0.00236612 6.5677e-14)
(-1.05874e-09 0.00237014 6.56768e-14)
(-1.06053e-09 0.00237416 6.5677e-14)
(-1.06233e-09 0.00237818 6.56768e-14)
(-1.06413e-09 0.0023822 6.5677e-14)
(-1.06592e-09 0.00238622 6.56768e-14)
(-1.06772e-09 0.00239024 6.5677e-14)
(-1.06951e-09 0.00239426 6.56768e-14)
(-1.07131e-09 0.00239828 6.5677e-14)
(-1.07311e-09 0.0024023 6.56768e-14)
(-1.0749e-09 0.00240632 6.5677e-14)
(-1.0767e-09 0.00241034 6.56768e-14)
(-1.07849e-09 0.00241436 6.5677e-14)
(-1.08029e-09 0.00241838 6.56768e-14)
(-1.08209e-09 0.0024224 6.5677e-14)
(-1.08388e-09 0.00242643 6.56768e-14)
(-1.08568e-09 0.00243045 6.5677e-14)
(-1.08747e-09 0.00243447 6.56768e-14)
(-1.08927e-09 0.00243849 6.5677e-14)
(-1.09107e-09 0.00244251 6.56768e-14)
(-1.09286e-09 0.00244653 6.5677e-14)
(-1.09466e-09 0.00245055 6.56768e-14)
(-1.09645e-09 0.00245457 6.5677e-14)
(-1.09825e-09 0.00245859 6.56768e-14)
(-1.10005e-09 0.00246261 6.5677e-14)
(-1.10184e-09 0.00246663 6.56768e-14)
(-1.10364e-09 0.00247065 6.5677e-14)
(-1.10543e-09 0.00247467 6.56768e-14)
(-1.10723e-09 0.00247869 6.5677e-14)
(-1.10903e-09 0.00248271 6.56768e-14)
(-1.11082e-09 0.00248673 6.5677e-14)
(-1.11262e-09 0.00249075 6.56768e-14)
(-1.11441e-09 0.00249478 6.5677e-14)
(-1.11621e-09 0.0024988 6.56768e-14)
(-1.11801e-09 0.00250282 6.5677e-14)
(-1.1198e-09 0.00250684 6.56768e-14)
(-1.1216e-09 0.00251086 6.5677e-14)
(-1.12339e-09 0.00251488 6.56768e-14)
(-1.12519e-09 0.0025189 6.5677e-14)
(-1.12699e-09 0.00252292 6.56768e-14)
(-1.12878e-09 0.00252694 6.5677e-14)
(-1.13058e-09 0.00253096 6.56768e-14)
(-1.13237e-09 0.00253498 6.5677e-14)
(-1.13417e-09 0.002539 6.56768e-14)
(-1.13597e-09 0.00254302 6.5677e-14)
(-1.13776e-09 0.00254704 6.56768e-14)
(-1.13956e-09 0.00255106 6.5677e-14)
(-1.14135e-09 0.00255508 6.56768e-14)
(-1.14315e-09 0.0025591 6.5677e-14)
(-1.14495e-09 0.00256313 6.56768e-14)
(-1.14674e-09 0.00256715 6.5677e-14)
(-1.14854e-09 0.00257117 6.56768e-14)
(-1.15033e-09 0.00257519 6.5677e-14)
(-1.15213e-09 0.00257921 6.56768e-14)
(-1.15393e-09 0.00258323 6.5677e-14)
(-1.15572e-09 0.00258725 6.56768e-14)
(-1.15752e-09 0.00259127 6.5677e-14)
(-1.15931e-09 0.00259529 6.56768e-14)
(-1.16111e-09 0.00259931 6.5677e-14)
(-1.16291e-09 0.00260333 6.56768e-14)
(-1.1647e-09 0.00260735 6.5677e-14)
(-1.1665e-09 0.00261137 6.56768e-14)
(-1.16829e-09 0.00261539 6.5677e-14)
(-1.17009e-09 0.00261941 6.56768e-14)
(-1.17189e-09 0.00262343 6.5677e-14)
(-1.17368e-09 0.00262745 6.56768e-14)
(-1.17548e-09 0.00263148 6.5677e-14)
(-1.17727e-09 0.0026355 6.56768e-14)
(-1.17907e-09 0.00263952 6.5677e-14)
(-1.18087e-09 0.00264354 6.56768e-14)
(-1.18266e-09 0.00264756 6.5677e-14)
(-1.18446e-09 0.00265158 6.56768e-14)
(-1.18625e-09 0.0026556 6.5677e-14)
(-1.18805e-09 0.00265962 6.56768e-14)
(-1.18985e-09 0.00266364 6.5677e-14)
(-1.19164e-09 0.00266766 6.56768e-14)
(-1.19344e-09 0.00267168 6.5677e-14)
(-1.19523e-09 0.0026757 6.56768e-14)
(-1.19703e-09 0.00267972 6.5677e-14)
(-1.19883e-09 0.00268374 6.56768e-14)
(-1.20062e-09 0.00268776 6.5677e-14)
(-1.20242e-09 0.00269178 6.56768e-14)
(-1.20421e-09 0.0026958 6.5677e-14)
(-1.20601e-09 0.00269983 6.56768e-14)
(-1.20781e-09 0.00270385 6.5677e-14)
(-1.2096e-09 0.00270787 6.56768e-14)
(-1.2114e-09 0.00271189 6.5677e-14)
(-1.21319e-09 0.00271591 6.56768e-14)
(-1.21499e-09 0.00271993 6.5677e-14)
(-1.21679e-09 0.00272395 6.56768e-14)
(-1.21858e-09 0.00272797 6.5677e-14)
(-1.22038e-09 0.00273199 6.56768e-14)
(-1.22217e-09 0.00273601 6.5677e-14)
(-1.22397e-09 0.00274003 6.56768e-14)
(-1.22577e-09 0.00274405 6.5677e-14)
(-1.22756e-09 0.00274807 6.56768e-14)
(-1.22936e-09 0.00275209 6.5677e-14)
(-1.23115e-09 0.00275611 6.56768e-14)
(-1.23295e-09 0.00276013 6.5677e-14)
(-1.23475e-09 0.00276415 6.56768e-14)
(-1.23654e-09 0.00276818 6.5677e-14)
(-1.23834e-09 0.0027722 6.56768e-14)
(-1.24013e-09 0.00277622 6.5677e-14)
(-1.24193e-09 0.00278024 6.56768e-14)
(-1.24373e-09 0.00278426 6.5677e-14)
(-1.24552e-09 0.00278828 6.56768e-14)
(-1.24732e-09 0.0027923 6.5677e-14)
(-1.24911e-09 0.00279632 6.56768e-14)
(-1.25091e-09 0.00280034 6.5677e-14)
(-1.25271e-09 0.00280436 6.56768e-14)
(-1.2545e-09 0.00280838 6.5677e-14)
(-1.2563e-09 0.0028124 6.56768e-14)
(-1.25809e-09 0.00281642 6.5677e-14)
(-1.25989e-09 0.00282044 6.56768e-14)
(-1.26169e-09 0.00282446 6.5677e-14)
(-1.26348e-09 0.00282848 6.56768e-14)
(-1.26528e-09 0.0028325 6.5677e-14)
(-1.26707e-09 0.00283653 6.56768e-14)
(-1.26887e-09 0.00284055 6.5677e-14)
(-1.27067e-09 0.00284457 6.56768e-14)
(-1.27246e-09 0.00284859 6.5677e-14)
(-1.27426e-09 0.00285261 6.56768e-14)
(-1.27605e-09 0.00285663 6.5677e-14)
(-1.27785e-09 0.00286065 6.56768e-14)
(-1.27965e-09 0.00286467 6.5677e-14)
(-1.28144e-09 0.00286869 6.56768e-14)
(-1.28324e-09 0.00287271 6.5677e-14)
(-1.28503e-09 0.00287673 6.56768e-14)
(-1.28683e-09 0.00288075 6.5677e-14)
(-1.28863e-09 0.00288477 6.56768e-14)
(-1.29042e-09 0.00288879 6.5677e-14)
(-1.29222e-09 0.00289281 6.56768e-14)
(-1.29401e-09 0.00289683 6.5677e-14)
(-1.29581e-09 0.00290085 6.56768e-14)
(-1.29761e-09 0.00290488 6.5677e-14)
(-1.2994e-09 0.0029089 6.56768e-14)
(-1.3012e-09 0.00291292 6.5677e-14)
(-1.30299e-09 0.00291694 6.56768e-14)
(-1.30479e-09 0.00292096 6.5677e-14)
(-1.30658e-09 0.00292498 6.56768e-14)
(-1.30838e-09 0.002929 6.5677e-14)
(-1.31018e-09 0.00293302 6.56768e-14)
(-1.31197e-09 0.00293704 6.5677e-14)
(-1.31377e-09 0.00294106 6.56768e-14)
(-1.31556e-09 0.00294508 6.56771e-14)
(-1.31736e-09 0.0029491 6.56768e-14)
(-1.31916e-09 0.00295312 6.5677e-14)
(-1.32095e-09 0.00295714 6.56768e-14)
(-1.32275e-09 0.00296116 6.5677e-14)
(-1.32454e-09 0.00296518 6.56768e-14)
(-1.32634e-09 0.0029692 6.5677e-14)
(-1.32814e-09 0.00297323 6.56768e-14)
(-1.32993e-09 0.00297725 6.5677e-14)
(-1.33173e-09 0.00298127 6.56768e-14)
(-1.33352e-09 0.00298529 6.5677e-14)
(-1.33532e-09 0.00298931 6.56768e-14)
(-1.33712e-09 0.00299333 6.5677e-14)
(-1.33891e-09 0.00299735 6.56768e-14)
(-1.34071e-09 0.00300137 6.5677e-14)
(-1.3425e-09 0.00300539 6.56768e-14)
(-1.3443e-09 0.00300941 6.56771e-14)
(-1.3461e-09 0.00301343 6.56768e-14)
(-1.34789e-09 0.00301745 6.5677e-14)
(-1.34969e-09 0.00302147 6.56768e-14)
(-1.35148e-09 0.00302549 6.5677e-14)
(-1.35328e-09 0.00302951 6.56768e-14)
(-1.35508e-09 0.00303353 6.5677e-14)
(-1.35687e-09 0.00303755 6.56768e-14)
(-1.35867e-09 0.00304158 6.5677e-14)
(-1.36046e-09 0.0030456 6.56768e-14)
(-1.36226e-09 0.00304962 6.5677e-14)
(-1.36406e-09 0.00305364 6.56768e-14)
(-1.36585e-09 0.00305766 6.56771e-14)
(-1.36765e-09 0.00306168 6.56768e-14)
(-1.36944e-09 0.0030657 6.5677e-14)
(-1.37124e-09 0.00306972 6.56768e-14)
(-1.37304e-09 0.00307374 6.56771e-14)
(-1.37483e-09 0.00307776 6.56768e-14)
(-1.37663e-09 0.00308178 6.56771e-14)
(-1.37842e-09 0.0030858 6.56768e-14)
(-1.38022e-09 0.00308982 6.56771e-14)
(-1.38202e-09 0.00309384 6.56768e-14)
(-1.38381e-09 0.00309786 6.5677e-14)
(-1.38561e-09 0.00310188 6.56768e-14)