/*--------------------------------*- C++ -*----------------------------------*\
| =========                 |                                                 |
| \\      /  F ield         | OpenFOAM: The Open Source CFD Toolbox           |
|  \\    /   O peration     | Version:  2206                                  |
|   \\  /    A nd           | Website:  www.openfoam.com                      |
|    \\/     M anipulation  |                                                 |
\*---------------------------------------------------------------------------*/
FoamFile
{
    version     2.0;
    format      ascii;
    arch        "LSB;label=32;scalar=64";
    class       volVectorField;
    location    "430";
    object      U;
}
// * * * * * * * * * * * * * * * * * * * * * * * * * * * * * * * * * * * * * //

dimensions      [0 1 -1 0 0 0 0];

internalField   nonuniform List<vector> 
100000
(
(-5.51746e-12 6.47291e-06 5.38452e-14)
(-4.78498e-12 1.20802e-05 8.39238e-14)
(-8.18664e-12 2.20219e-05 1.44552e-13)
(-1.47694e-11 3.26979e-05 1.5035e-13)
(-1.79881e-11 4.2377e-05 8.99874e-14)
(-1.69689e-11 4.48627e-05 7.54871e-14)
(-2.07523e-11 5.47638e-05 1.41376e-13)
(-2.64056e-11 6.55811e-05 1.47954e-13)
(-3.13543e-11 7.63802e-05 1.49538e-13)
(-3.59346e-11 8.61455e-05 8.42248e-14)
(-3.4017e-11 8.85656e-05 7.84154e-14)
(-3.84312e-11 9.84402e-05 1.43045e-13)
(-4.36619e-11 0.000109261 1.48581e-13)
(-4.88793e-11 0.00012007 1.47863e-13)
(-5.33549e-11 0.000129859 8.3468e-14)
(-5.13867e-11 0.000132267 7.88219e-14)
(-5.60135e-11 0.000142129 1.44329e-13)
(-6.08826e-11 0.00015295 1.48142e-13)
(-6.66318e-11 0.000163762 1.47756e-13)
(-7.03957e-11 0.000173563 8.2344e-14)
(-6.93386e-11 0.000175966 7.99452e-14)
(-7.28279e-11 0.000185822 1.44054e-13)
(-7.91077e-11 0.00019665 1.49726e-13)
(-8.32292e-11 0.000207558 1.51348e-13)
(-8.9536e-11 0.000218378 1.48012e-13)
(-9.30523e-11 0.000228186 8.35963e-14)
(-9.19294e-11 0.000230588 8.02252e-14)
(-9.57089e-11 0.000240438 1.46458e-13)
(-1.0145e-10 0.000251258 1.49451e-13)
(-1.06344e-10 0.000262073 1.48328e-13)
(-1.11023e-10 0.000271885 8.25883e-14)
(-1.08944e-10 0.000274285 8.08421e-14)
(-1.13521e-10 0.000284132 1.45966e-13)
(-1.18601e-10 0.000294952 1.49634e-13)
(-1.24039e-10 0.000305768 1.47694e-13)
(-1.28263e-10 0.000315582 8.26025e-14)
(-1.26566e-10 0.000317982 8.06772e-14)
(-1.30831e-10 0.000327827 1.46117e-13)
(-1.36167e-10 0.000338647 1.49342e-13)
(-1.41391e-10 0.000349463 1.47578e-13)
(-1.4579e-10 0.000359279 8.23147e-14)
(-1.43953e-10 0.000361679 8.08028e-14)
(-1.48335e-10 0.000371521 1.46021e-13)
(-1.53576e-10 0.000382341 1.49295e-13)
(-1.58874e-10 0.000393158 1.47337e-13)
(-1.63211e-10 0.000402975 8.22183e-14)
(-1.61425e-10 0.000405375 8.07915e-14)
(-1.65772e-10 0.000415216 1.46041e-13)
(-1.71036e-10 0.000426036 1.49173e-13)
(-1.76319e-10 0.000436853 1.4722e-13)
(-1.8066e-10 0.000446672 8.20729e-14)
(-1.78882e-10 0.000449071 8.08464e-14)
(-1.83214e-10 0.000458911 1.45995e-13)
(-1.88502e-10 0.000469731 1.49136e-13)
(-1.93748e-10 0.000480548 1.47061e-13)
(-1.98136e-10 0.000490368 8.20204e-14)
(-1.963e-10 0.000492767 8.08192e-14)
(-2.00707e-10 0.000502606 1.46037e-13)
(-2.05903e-10 0.000513426 1.49014e-13)
(-2.1126e-10 0.000524243 1.47033e-13)
(-2.15512e-10 0.000534064 8.18555e-14)
(-2.13842e-10 0.000536463 8.09384e-14)
(-2.1805e-10 0.000546302 1.45905e-13)
(-2.23485e-10 0.000557121 1.4911e-13)
(-2.28554e-10 0.000567938 1.46774e-13)
(-2.3315e-10 0.00057776 8.1996e-14)
(-2.31069e-10 0.000580159 8.07054e-14)
(-2.35772e-10 0.000589997 1.46192e-13)
(-2.40613e-10 0.000600816 1.48714e-13)
(-2.46392e-10 0.000611633 1.47124e-13)
(-2.50137e-10 0.000621456 8.14332e-14)
(-2.49077e-10 0.000623854 8.13281e-14)
(-2.52559e-10 0.000633693 1.45495e-13)
(-2.58866e-10 0.000644519 1.50249e-13)
(-2.62972e-10 0.000655428 1.50758e-13)
(-2.69285e-10 0.000666252 1.46717e-13)
(-2.72781e-10 0.000676075 8.24608e-14)
(-2.71693e-10 0.000678474 8.07868e-14)
(-2.75452e-10 0.000688311 1.46747e-13)
(-2.81214e-10 0.00069913 1.49096e-13)
(-2.86082e-10 0.000709948 1.47364e-13)
(-2.90775e-10 0.000719771 8.17628e-14)
(-2.88692e-10 0.00072217 8.13074e-14)
(-2.93281e-10 0.000732006 1.46276e-13)
(-2.98352e-10 0.000742826 1.49404e-13)
(-3.03793e-10 0.000753643 1.46989e-13)
(-3.08007e-10 0.000763467 8.19608e-14)
(-3.06326e-10 0.000765865 8.10948e-14)
(-3.1058e-10 0.000775702 1.46417e-13)
(-3.15931e-10 0.000786521 1.49214e-13)
(-3.21137e-10 0.000797338 1.47038e-13)
(-3.25548e-10 0.000807162 8.18206e-14)
(-3.23701e-10 0.000809561 8.11657e-14)
(-3.28098e-10 0.000819397 1.4633e-13)
(-3.33325e-10 0.000830216 1.49218e-13)
(-3.38639e-10 0.000841034 1.46943e-13)
(-3.42952e-10 0.000850858 8.18052e-14)
(-3.41196e-10 0.000853257 8.11446e-14)
(-3.45509e-10 0.000863092 1.46314e-13)
(-3.50817e-10 0.000873911 1.4918e-13)
(-3.56048e-10 0.000884729 1.4688e-13)
(-3.60447e-10 0.000894554 8.17862e-14)
(-3.586e-10 0.000896952 8.11127e-14)
(-3.63014e-10 0.000906788 1.4633e-13)
(-3.68208e-10 0.000917607 1.49095e-13)
(-3.73568e-10 0.000928424 1.46894e-13)
(-3.77817e-10 0.000938249 8.16753e-14)
(-3.76147e-10 0.000940648 8.12037e-14)
(-3.80354e-10 0.000950483 1.46195e-13)
(-3.85792e-10 0.000961302 1.49203e-13)
(-3.90861e-10 0.00097212 1.46681e-13)
(-3.95456e-10 0.000981945 8.18485e-14)
(-3.93374e-10 0.000984343 8.09549e-14)
(-3.98075e-10 0.000994178 1.46472e-13)
(-4.02922e-10 0.001005 1.48819e-13)
(-4.08698e-10 0.00101582 1.47066e-13)
(-4.12446e-10 0.00102564 8.13114e-14)
(-4.11379e-10 0.00102804 8.15671e-14)
(-4.14864e-10 0.00103787 1.45759e-13)
(-4.21172e-10 0.0010487 1.50369e-13)
(-4.2528e-10 0.00105961 1.50684e-13)
(-4.31591e-10 0.00107043 1.46511e-13)
(-4.35085e-10 0.00108026 8.22658e-14)
(-4.34001e-10 0.00108266 8.09116e-14)
(-4.37759e-10 0.00109249 1.46833e-13)
(-4.43523e-10 0.00110331 1.49051e-13)
(-4.48387e-10 0.00111413 1.4719e-13)
(-4.53081e-10 0.00112396 8.16001e-14)
(-4.50999e-10 0.00112635 8.14278e-14)
(-4.55587e-10 0.00113619 1.46371e-13)
(-4.60661e-10 0.00114701 1.49381e-13)
(-4.66099e-10 0.00115783 1.46846e-13)
(-4.70315e-10 0.00116765 8.18248e-14)
(-4.68631e-10 0.00117005 8.12093e-14)
(-4.7289e-10 0.00117988 1.46523e-13)
(-4.78236e-10 0.0011907 1.49203e-13)
(-4.83447e-10 0.00120152 1.46929e-13)
(-4.87851e-10 0.00121135 8.16971e-14)
(-4.86013e-10 0.00121374 8.12873e-14)
(-4.90399e-10 0.00122358 1.4643e-13)
(-4.95641e-10 0.0012344 1.49235e-13)
(-5.00936e-10 0.00124522 1.46841e-13)
(-5.05272e-10 0.00125504 8.17185e-14)
(-5.03488e-10 0.00125744 8.12405e-14)
(-5.07834e-10 0.00126727 1.46445e-13)
(-5.13104e-10 0.00127809 1.49176e-13)
(-5.18381e-10 0.00128891 1.46838e-13)
(-5.22724e-10 0.00129874 8.16671e-14)
(-5.20943e-10 0.00130114 8.1263e-14)
(-5.25277e-10 0.00131097 1.46396e-13)
(-5.30569e-10 0.00132179 1.49183e-13)
(-5.35813e-10 0.00133261 1.46771e-13)
(-5.402e-10 0.00134243 8.16862e-14)
(-5.38363e-10 0.00134483 8.12113e-14)
(-5.42769e-10 0.00135467 1.46431e-13)
(-5.47971e-10 0.00136548 1.49097e-13)
(-5.53324e-10 0.0013763 1.46814e-13)
(-5.57579e-10 0.00138613 8.15812e-14)
(-5.55903e-10 0.00138853 8.13072e-14)
(-5.60115e-10 0.00139836 1.46294e-13)
(-5.65551e-10 0.00140918 1.4922e-13)
(-5.70622e-10 0.00142 1.46613e-13)
(-5.75214e-10 0.00142982 8.17706e-14)
(-5.73134e-10 0.00143222 8.10531e-14)
(-5.77832e-10 0.00144206 1.46576e-13)
(-5.82683e-10 0.00145287 1.48842e-13)
(-5.88456e-10 0.00146369 1.47016e-13)
(-5.92206e-10 0.00147352 8.12408e-14)
(-5.91137e-10 0.00147592 8.16674e-14)
(-5.94624e-10 0.00148575 1.4586e-13)
(-6.00932e-10 0.00149658 1.50403e-13)
(-6.05039e-10 0.00150749 1.50623e-13)
(-6.1135e-10 0.00151831 1.46388e-13)
(-6.14843e-10 0.00152814 8.21572e-14)
(-6.13761e-10 0.00153054 8.09613e-14)
(-6.17517e-10 0.00154037 1.46852e-13)
(-6.23284e-10 0.00155119 1.49006e-13)
(-6.28145e-10 0.00156201 1.4708e-13)
(-6.3284e-10 0.00157183 8.15069e-14)
(-6.30758e-10 0.00157423 8.14753e-14)
(-6.35348e-10 0.00158407 1.464e-13)
(-6.40419e-10 0.00159488 1.49344e-13)
(-6.4586e-10 0.0016057 1.46753e-13)
(-6.50072e-10 0.00161553 8.17384e-14)
(-6.48393e-10 0.00161793 8.12616e-14)
(-6.52646e-10 0.00162776 1.46553e-13)
(-6.58e-10 0.00163858 1.49181e-13)
(-6.63202e-10 0.0016494 1.46843e-13)
(-6.67615e-10 0.00165923 8.16273e-14)
(-6.65767e-10 0.00166162 8.13315e-14)
(-6.70165e-10 0.00167146 1.46475e-13)
(-6.75393e-10 0.00168228 1.49209e-13)
(-6.80705e-10 0.00169309 1.46782e-13)
(-6.85019e-10 0.00170292 8.16383e-14)
(-6.83262e-10 0.00170532 8.13077e-14)
(-6.87576e-10 0.00171515 1.46468e-13)
(-6.92885e-10 0.00172597 1.49189e-13)
(-6.98115e-10 0.00173679 1.4675e-13)
(-7.02514e-10 0.00174662 8.16411e-14)
(-7.00667e-10 0.00174901 8.12745e-14)
(-7.0508e-10 0.00175885 1.4649e-13)
(-7.10277e-10 0.00176967 1.49122e-13)
(-7.15635e-10 0.00178048 1.4679e-13)
(-7.19885e-10 0.00179031 8.15502e-14)
(-7.18212e-10 0.00179271 8.13631e-14)
(-7.22421e-10 0.00180254 1.46361e-13)
(-7.2786e-10 0.00181336 1.49244e-13)
(-7.3293e-10 0.00182418 1.466e-13)
(-7.37524e-10 0.00183401 8.17411e-14)
(-7.35441e-10 0.00183641 8.11114e-14)
(-7.4014e-10 0.00184624 1.46643e-13)
(-7.44992e-10 0.00185706 1.48872e-13)
(-7.50765e-10 0.00186788 1.47007e-13)
(-7.54515e-10 0.0018777 8.1216e-14)
(-7.53444e-10 0.0018801 8.17256e-14)
(-7.56932e-10 0.00188993 1.45927e-13)
(-7.6324e-10 0.00190076 1.50436e-13)
(-7.67348e-10 0.00191167 1.5061e-13)
(-7.73658e-10 0.00192249 1.46342e-13)
(-7.77151e-10 0.00193232 8.21123e-14)
(-7.7607e-10 0.00193472 8.09947e-14)
(-7.79826e-10 0.00194455 1.46879e-13)
(-7.85592e-10 0.00195537 1.48999e-13)
(-7.90453e-10 0.00196619 1.4704e-13)
(-7.95148e-10 0.00197602 8.14668e-14)
(-7.93067e-10 0.00197842 8.15101e-14)
(-7.97656e-10 0.00198825 1.46429e-13)
(-8.02729e-10 0.00199907 1.49343e-13)
(-8.08166e-10 0.00200989 1.46717e-13)
(-8.12382e-10 0.00201971 8.17054e-14)
(-8.10699e-10 0.00202211 8.12937e-14)
(-8.14957e-10 0.00203194 1.46589e-13)
(-8.20305e-10 0.00204276 1.49179e-13)
(-8.25515e-10 0.00205358 1.4682e-13)
(-8.29918e-10 0.00206341 8.15907e-14)
(-8.28081e-10 0.00206581 8.13733e-14)
(-8.32467e-10 0.00207564 1.46503e-13)
(-8.3771e-10 0.00208646 1.49224e-13)
(-8.43004e-10 0.00209728 1.46748e-13)
(-8.47339e-10 0.0021071 8.16242e-14)
(-8.45556e-10 0.0021095 8.13274e-14)
(-8.49901e-10 0.00211933 1.46525e-13)
(-8.55173e-10 0.00213015 1.49176e-13)
(-8.60448e-10 0.00214097 1.4676e-13)
(-8.64793e-10 0.0021508 8.15834e-14)
(-8.63011e-10 0.0021532 8.1351e-14)
(-8.67345e-10 0.00216303 1.46481e-13)
(-8.72637e-10 0.00217385 1.49193e-13)
(-8.77882e-10 0.00218467 1.46707e-13)
(-8.82268e-10 0.00219449 8.16123e-14)
(-8.80431e-10 0.00219689 8.12998e-14)
(-8.84836e-10 0.00220673 1.46522e-13)
(-8.90041e-10 0.00221754 1.49116e-13)
(-8.95392e-10 0.00222836 1.46763e-13)
(-8.99647e-10 0.00223819 8.1516e-14)
(-8.9797e-10 0.00224059 8.13965e-14)
(-9.02183e-10 0.00225042 1.46388e-13)
(-9.07619e-10 0.00226124 1.49247e-13)
(-9.12691e-10 0.00227206 1.46573e-13)
(-9.17282e-10 0.00228189 8.1714e-14)
(-9.15201e-10 0.00228428 8.1142e-14)
(-9.19899e-10 0.00229412 1.46675e-13)
(-9.24752e-10 0.00230494 1.48876e-13)
(-9.30524e-10 0.00231575 1.46987e-13)
(-9.34275e-10 0.00232558 8.11894e-14)
(-9.33203e-10 0.00232798 8.17592e-14)
(-9.36692e-10 0.00233781 1.45959e-13)
(-9.43e-10 0.00234864 1.50445e-13)
(-9.47108e-10 0.00235955 1.50586e-13)
(-9.53418e-10 0.00237037 1.46296e-13)
(-9.5691e-10 0.0023802 8.20714e-14)
(-9.5583e-10 0.0023826 8.10113e-14)
(-9.59585e-10 0.00239243 1.46883e-13)
(-9.65353e-10 0.00240325 1.4898e-13)
(-9.70212e-10 0.00241407 1.46996e-13)
(-9.74909e-10 0.0024239 8.14316e-14)
(-9.72826e-10 0.00242629 8.15253e-14)
(-9.77417e-10 0.00243613 1.46437e-13)
(-9.82488e-10 0.00244695 1.49325e-13)
(-9.87928e-10 0.00245776 1.46681e-13)
(-9.92139e-10 0.00246759 8.16698e-14)
(-9.90462e-10 0.00246999 8.13137e-14)
(-9.94715e-10 0.00247982 1.46596e-13)
(-1.00007e-09 0.00249064 1.49171e-13)
(-1.00527e-09 0.00250146 1.46781e-13)
(-1.00968e-09 0.00251129 8.15655e-14)
(-1.00784e-09 0.00251369 8.1385e-14)
(-1.01223e-09 0.00252352 1.46522e-13)
(-1.01746e-09 0.00253434 1.49205e-13)
(-1.02277e-09 0.00254515 1.46729e-13)
(-1.02709e-09 0.00255498 8.15828e-14)
(-1.02533e-09 0.00255738 8.13625e-14)
(-1.02964e-09 0.00256721 1.4652e-13)
(-1.03495e-09 0.00257803 1.49192e-13)
(-1.04018e-09 0.00258885 1.46706e-13)
(-1.04458e-09 0.00259868 8.15914e-14)
(-1.04273e-09 0.00260108 8.13304e-14)
(-1.04715e-09 0.00261091 1.46546e-13)
(-1.05235e-09 0.00262173 1.49131e-13)
(-1.0577e-09 0.00263255 1.46753e-13)
(-1.06195e-09 0.00264237 8.15058e-14)
(-1.06028e-09 0.00264477 8.14201e-14)
(-1.06449e-09 0.0026546 1.4642e-13)
(-1.06993e-09 0.00266542 1.49259e-13)
(-1.075e-09 0.00267624 1.4657e-13)
(-1.07959e-09 0.00268607 8.17021e-14)
(-1.07751e-09 0.00268847 8.11688e-14)
(-1.08221e-09 0.0026983 1.46706e-13)
(-1.08706e-09 0.00270912 1.48891e-13)
(-1.09283e-09 0.00271994 1.46985e-13)
(-1.09658e-09 0.00272976 8.11801e-14)
(-1.09551e-09 0.00273216 8.17856e-14)
(-1.099e-09 0.002742 1.45991e-13)
(-1.10531e-09 0.00275282 1.50462e-13)
(-1.10942e-09 0.00276373 1.50582e-13)
(-1.11573e-09 0.00277455 1.46278e-13)
(-1.11922e-09 0.00278438 8.20529e-14)
(-1.11814e-09 0.00278678 8.10271e-14)
(-1.12189e-09 0.00279661 1.46897e-13)
(-1.12766e-09 0.00280743 1.48979e-13)
(-1.13252e-09 0.00281825 1.46981e-13)
(-1.13722e-09 0.00282808 8.14141e-14)
(-1.13514e-09 0.00283048 8.15428e-14)
(-1.13972e-09 0.00284031 1.46452e-13)
(-1.1448e-09 0.00285113 1.49328e-13)
(-1.15024e-09 0.00286195 1.46666e-13)
(-1.15445e-09 0.00287177 8.1657e-14)
(-1.15277e-09 0.00287417 8.13282e-14)
(-1.15703e-09 0.002884 1.46616e-13)
(-1.16237e-09 0.00289482 1.4917e-13)
(-1.16758e-09 0.00290564 1.46774e-13)
(-1.17199e-09 0.00291547 8.15467e-14)
(-1.17015e-09 0.00291787 8.14091e-14)
(-1.17454e-09 0.0029277 1.46533e-13)
(-1.17978e-09 0.00293852 1.4922e-13)
(-1.18507e-09 0.00294934 1.46709e-13)
(-1.18941e-09 0.00295917 8.15843e-14)
(-1.18762e-09 0.00296156 8.13644e-14)
(-1.19197e-09 0.0029714 1.46559e-13)
(-1.19724e-09 0.00298221 1.49176e-13)
(-1.20252e-09 0.00299303 1.46727e-13)
(-1.20686e-09 0.00300286 8.15473e-14)
(-1.20508e-09 0.00300526 8.13891e-14)
(-1.20941e-09 0.00301509 1.46518e-13)
(-1.21471e-09 0.00302591 1.49197e-13)
(-1.21995e-09 0.00303673 1.46679e-13)
(-1.22434e-09 0.00304656 8.15798e-14)
(-1.2225e-09 0.00304895 8.1339e-14)
(-1.2269e-09 0.00305879 1.46562e-13)
(-1.23211e-09 0.0030696 1.49125e-13)
(-1.23746e-09 0.00308042 1.4674e-13)
(-1.24172e-09 0.00309025 8.14868e-14)
(-1.24004e-09 0.00309265 8.14367e-14)
(-1.24425e-09 0.00310248 1.46431e-13)
(-1.24969e-09 0.0031133 1.4926e-13)
(-1.25476e-09 0.00312412 1.46555e-13)
(-1.25935e-09 0.00313395 8.16881e-14)
(-1.25727e-09 0.00313635 8.11827e-14)
(-1.26197e-09 0.00314618 1.46721e-13)
(-1.26682e-09 0.003157 1.48891e-13)
(-1.27259e-09 0.00316781 1.46974e-13)
(-1.27634e-09 0.00317764 8.11656e-14)
(-1.27527e-09 0.00318004 8.18018e-14)
(-1.27876e-09 0.00318987 1.46005e-13)
(-1.28507e-09 0.0032007 1.50465e-13)
(-1.28918e-09 0.00321161 1.50568e-13)
(-1.29549e-09 0.00322243 1.46253e-13)
(-1.29898e-09 0.00323226 8.2031e-14)
(-1.2979e-09 0.00323466 8.1035e-14)
(-1.30165e-09 0.00324449 1.46897e-13)
(-1.30742e-09 0.00325531 1.48968e-13)
(-1.31228e-09 0.00326613 1.46956e-13)
(-1.31698e-09 0.00327596 8.13955e-14)
(-1.31489e-09 0.00327836 8.15494e-14)
(-1.31949e-09 0.00328819 1.46455e-13)
(-1.32456e-09 0.00329901 1.49316e-13)
(-1.33e-09 0.00330982 1.46646e-13)
(-1.33421e-09 0.00331965 8.16366e-14)
(-1.33253e-09 0.00332205 8.13391e-14)
(-1.33678e-09 0.00333188 1.46616e-13)
(-1.34214e-09 0.0033427 1.49165e-13)
(-1.34734e-09 0.00335352 1.4675e-13)
(-1.35175e-09 0.00336335 8.15351e-14)
(-1.3499e-09 0.00336575 8.14115e-14)
(-1.3543e-09 0.00337558 1.46546e-13)
(-1.35953e-09 0.0033864 1.49204e-13)
(-1.36484e-09 0.00339722 1.46703e-13)
(-1.36916e-09 0.00340704 8.15552e-14)
(-1.3674e-09 0.00340944 8.13899e-14)
(-1.37171e-09 0.00341927 1.46545e-13)
(-1.37702e-09 0.00343009 1.49194e-13)
(-1.38225e-09 0.00344091 1.46683e-13)
(-1.38665e-09 0.00345074 8.15663e-14)
(-1.3848e-09 0.00345314 8.13588e-14)
(-1.38922e-09 0.00346297 1.46574e-13)
(-1.39442e-09 0.00347379 1.49136e-13)
(-1.39977e-09 0.00348461 1.46735e-13)
(-1.40402e-09 0.00349443 8.14831e-14)
(-1.40235e-09 0.00349683 8.14493e-14)
(-1.40656e-09 0.00350666 1.4645e-13)
(-1.412e-09 0.00351748 1.49267e-13)
(-1.41707e-09 0.0035283 1.46555e-13)
(-1.42166e-09 0.00353813 8.16818e-14)
(-1.41958e-09 0.00354053 8.11987e-14)
(-1.42428e-09 0.00355036 1.46739e-13)
(-1.42913e-09 0.00356118 1.48901e-13)
(-1.4349e-09 0.003572 1.46974e-13)
(-1.43865e-09 0.00358183 8.11614e-14)
(-1.43758e-09 0.00358422 8.18171e-14)
(-1.44107e-09 0.00359406 1.46024e-13)
(-1.44738e-09 0.00360488 1.50475e-13)
(-1.45149e-09 0.00361579 1.50568e-13)
(-1.4578e-09 0.00362662 1.46243e-13)
(-1.46129e-09 0.00363644 8.20214e-14)
(-1.46021e-09 0.00363884 8.10444e-14)
(-1.46396e-09 0.00364867 1.46906e-13)
(-1.46973e-09 0.00365949 1.48968e-13)
(-1.47459e-09 0.00367031 1.46949e-13)
(-1.47929e-09 0.00368014 8.13858e-14)
(-1.4772e-09 0.00368254 8.15605e-14)
(-1.48179e-09 0.00369237 1.46464e-13)
(-1.48687e-09 0.00370319 1.4932e-13)
(-1.4923e-09 0.00371401 1.46638e-13)
(-1.49652e-09 0.00372384 8.16307e-14)
(-1.49484e-09 0.00372623 8.13469e-14)
(-1.49909e-09 0.00373607 1.46631e-13)
(-1.50444e-09 0.00374688 1.49165e-13)
(-1.50965e-09 0.0037577 1.4675e-13)
(-1.51406e-09 0.00376753 8.15226e-14)
(-1.51222e-09 0.00376993 8.14288e-14)
(-1.5166e-09 0.00377976 1.4655e-13)
(-1.52185e-09 0.00379058 1.49217e-13)
(-1.52714e-09 0.0038014 1.46687e-13)
(-1.53148e-09 0.00381123 8.15622e-14)
(-1.52969e-09 0.00381362 8.13849e-14)
(-1.53404e-09 0.00382346 1.46577e-13)
(-1.53931e-09 0.00383427 1.49176e-13)
(-1.54459e-09 0.00384509 1.46708e-13)
(-1.54893e-09 0.00385492 8.15271e-14)
(-1.54715e-09 0.00385732 8.14105e-14)
(-1.55148e-09 0.00386715 1.46539e-13)
(-1.55678e-09 0.00387797 1.492e-13)
(-1.56202e-09 0.00388879 1.46664e-13)
(-1.56641e-09 0.00389862 8.15615e-14)
(-1.56457e-09 0.00390102 8.13611e-14)
(-1.56897e-09 0.00391085 1.46584e-13)
(-1.57418e-09 0.00392167 1.4913e-13)
(-1.57953e-09 0.00393248 1.46727e-13)
(-1.58379e-09 0.00394231 8.14702e-14)
(-1.58211e-09 0.00394471 8.14595e-14)
(-1.58632e-09 0.00395454 1.46455e-13)
(-1.59176e-09 0.00396536 1.49267e-13)
(-1.59683e-09 0.00397618 1.46544e-13)
(-1.60142e-09 0.00398601 8.16734e-14)
(-1.59934e-09 0.00398841 8.12061e-14)
(-1.60404e-09 0.00399824 1.46747e-13)
(-1.60889e-09 0.00400906 1.489e-13)
(-1.61466e-09 0.00401987 1.46966e-13)
(-1.61841e-09 0.0040297 8.11519e-14)
(-1.61734e-09 0.0040321 8.18265e-14)
(-1.62083e-09 0.00404193 1.46032e-13)
(-1.62714e-09 0.00405276 1.50476e-13)
(-1.63125e-09 0.00406367 1.50558e-13)
(-1.63756e-09 0.00407449 1.46227e-13)
(-1.64105e-09 0.00408432 8.20074e-14)
(-1.63997e-09 0.00408672 8.10488e-14)
(-1.64372e-09 0.00409655 1.46905e-13)
(-1.64949e-09 0.00410737 1.48961e-13)
(-1.65435e-09 0.00411819 1.46933e-13)
(-1.65905e-09 0.00412802 8.13743e-14)
(-1.65696e-09 0.00413042 8.15635e-14)
(-1.66156e-09 0.00414025 1.46466e-13)
(-1.66663e-09 0.00415107 1.49311e-13)
(-1.67207e-09 0.00416189 1.46625e-13)
(-1.67628e-09 0.00417171 8.16169e-14)
(-1.6746e-09 0.00417411 8.13541e-14)
(-1.67885e-09 0.00418394 1.46629e-13)
(-1.68421e-09 0.00419476 1.49162e-13)
(-1.68941e-09 0.00420558 1.46732e-13)
(-1.69382e-09 0.00421541 8.1517e-14)
(-1.69197e-09 0.00421781 8.14273e-14)
(-1.69637e-09 0.00422764 1.4656e-13)
(-1.7016e-09 0.00423846 1.49203e-13)
(-1.70691e-09 0.00424928 1.46687e-13)
(-1.71122e-09 0.0042591 8.15386e-14)
(-1.70947e-09 0.0042615 8.14064e-14)
(-1.71378e-09 0.00427133 1.46561e-13)
(-1.71909e-09 0.00428215 1.49195e-13)
(-1.72432e-09 0.00429297 1.4667e-13)
(-1.72872e-09 0.0043028 8.15511e-14)
(-1.72687e-09 0.0043052 8.1376e-14)
(-1.73129e-09 0.00431503 1.46591e-13)
(-1.73648e-09 0.00432585 1.49139e-13)
(-1.74184e-09 0.00433667 1.46723e-13)
(-1.74609e-09 0.0043465 8.14693e-14)
(-1.74442e-09 0.00434889 8.14671e-14)
(-1.74863e-09 0.00435873 1.46469e-13)
(-1.75407e-09 0.00436954 1.49271e-13)
(-1.75914e-09 0.00438036 1.46546e-13)
(-1.76373e-09 0.00439019 8.16694e-14)
(-1.76165e-09 0.00439259 8.1217e-14)
(-1.76635e-09 0.00440242 1.46759e-13)
(-1.7712e-09 0.00441324 1.48907e-13)
(-1.77697e-09 0.00442406 1.46967e-13)
(-1.78072e-09 0.00443389 8.11498e-14)
(-1.77965e-09 0.00443629 8.18365e-14)
(-1.78314e-09 0.00444612 1.46045e-13)
(-1.78945e-09 0.00445694 1.50484e-13)
(-1.79355e-09 0.00446785 1.50558e-13)
(-1.79986e-09 0.00447868 1.46222e-13)
(-1.80336e-09 0.00448851 8.20019e-14)
(-1.80228e-09 0.0044909 8.10551e-14)
(-1.80603e-09 0.00450074 1.46912e-13)
(-1.8118e-09 0.00451155 1.48961e-13)
(-1.81666e-09 0.00452237 1.46929e-13)
(-1.82135e-09 0.0045322 8.13682e-14)
(-1.81927e-09 0.0045346 8.15715e-14)
(-1.82386e-09 0.00454443 1.46472e-13)
(-1.82894e-09 0.00455525 1.49315e-13)
(-1.83437e-09 0.00456607 1.4662e-13)
(-1.83859e-09 0.0045759 8.16143e-14)
(-1.83691e-09 0.0045783 8.13587e-14)
(-1.84116e-09 0.00458813 1.4664e-13)
(-1.84651e-09 0.00459894 1.49161e-13)
(-1.85172e-09 0.00460976 1.46734e-13)
(-1.85612e-09 0.00461959 8.15074e-14)
(-1.85429e-09 0.00462199 8.14412e-14)
(-1.85867e-09 0.00463182 1.4656e-13)
(-1.86392e-09 0.00464264 1.49215e-13)
(-1.86921e-09 0.00465346 1.46674e-13)
(-1.87355e-09 0.00466329 8.15483e-14)
(-1.87176e-09 0.00466569 8.13979e-14)
(-1.87611e-09 0.00467552 1.46589e-13)
(-1.88138e-09 0.00468634 1.49176e-13)
(-1.88665e-09 0.00469715 1.46697e-13)
(-1.891e-09 0.00470698 8.15143e-14)
(-1.88922e-09 0.00470938 8.14241e-14)
(-1.89355e-09 0.00471921 1.46552e-13)
(-1.89884e-09 0.00473003 1.49201e-13)
(-1.90409e-09 0.00474085 1.46654e-13)
(-1.90847e-09 0.00475068 8.15498e-14)
(-1.90664e-09 0.00475308 8.13753e-14)
(-1.91104e-09 0.00476291 1.46599e-13)
(-1.91625e-09 0.00477373 1.49133e-13)
(-1.9216e-09 0.00478454 1.46719e-13)
(-1.92585e-09 0.00479437 8.14595e-14)
(-1.92418e-09 0.00479677 8.14742e-14)
(-1.92839e-09 0.0048066 1.46471e-13)
(-1.93383e-09 0.00481742 1.49271e-13)
(-1.9389e-09 0.00482824 1.46537e-13)
(-1.94349e-09 0.00483807 8.16638e-14)
(-1.94141e-09 0.00484047 8.12212e-14)
(-1.9461e-09 0.0048503 1.46764e-13)
(-1.95096e-09 0.00486112 1.48905e-13)
(-1.95673e-09 0.00487194 1.46961e-13)
(-1.96048e-09 0.00488176 8.1143e-14)
(-1.95941e-09 0.00488416 8.18426e-14)
(-1.9629e-09 0.00489399 1.46049e-13)
(-1.96921e-09 0.00490482 1.50484e-13)
(-1.97331e-09 0.00491573 1.50551e-13)
(-1.97962e-09 0.00492655 1.46211e-13)
(-1.98312e-09 0.00493638 8.1992e-14)
(-1.98204e-09 0.00493878 8.10579e-14)
(-1.98579e-09 0.00494861 1.46911e-13)
(-1.99156e-09 0.00495943 1.48956e-13)
(-1.99642e-09 0.00497025 1.46917e-13)
(-2.00112e-09 0.00498008 8.13604e-14)
(-1.99903e-09 0.00498248 8.15728e-14)
(-2.00362e-09 0.00499231 1.46473e-13)
(-2.00869e-09 0.00500313 1.49308e-13)
(-2.01413e-09 0.00501395 1.46612e-13)
(-2.01835e-09 0.00502378 8.16039e-14)
(-2.01667e-09 0.00502617 8.13641e-14)
(-2.02092e-09 0.005036 1.46637e-13)
(-2.02628e-09 0.00504682 1.4916e-13)
(-2.03148e-09 0.00505764 1.4672e-13)
(-2.03589e-09 0.00506747 8.1505e-14)
(-2.03404e-09 0.00506987 8.14378e-14)
(-2.03844e-09 0.0050797 1.46569e-13)
(-2.04367e-09 0.00509052 1.49202e-13)
(-2.04898e-09 0.00510134 1.46676e-13)
(-2.05329e-09 0.00511117 8.15276e-14)
(-2.05154e-09 0.00511356 8.14174e-14)
(-2.05585e-09 0.0051234 1.46572e-13)
(-2.06116e-09 0.00513421 1.49196e-13)
(-2.06639e-09 0.00514503 1.46661e-13)
(-2.07079e-09 0.00515486 8.15409e-14)
(-2.06894e-09 0.00515726 8.13875e-14)
(-2.07335e-09 0.00516709 1.46603e-13)
(-2.07855e-09 0.00517791 1.49141e-13)
(-2.08391e-09 0.00518873 1.46716e-13)
(-2.08816e-09 0.00519856 8.14601e-14)
(-2.08649e-09 0.00520096 8.14791e-14)
(-2.0907e-09 0.00521079 1.46481e-13)
(-2.09614e-09 0.0052216 1.49275e-13)
(-2.10121e-09 0.00523242 1.46539e-13)
(-2.1058e-09 0.00524225 8.16611e-14)
(-2.10372e-09 0.00524465 8.12293e-14)
(-2.10841e-09 0.00525448 1.46773e-13)
(-2.11327e-09 0.0052653 1.48911e-13)
(-2.11904e-09 0.00527612 1.46962e-13)
(-2.12279e-09 0.00528595 8.1142e-14)
(-2.12172e-09 0.00528835 8.18497e-14)
(-2.12521e-09 0.00529818 1.46059e-13)
(-2.13152e-09 0.005309 1.50489e-13)
(-2.13562e-09 0.00531991 1.50552e-13)
(-2.14193e-09 0.00533074 1.46208e-13)
(-2.14542e-09 0.00534057 8.19886e-14)
(-2.14435e-09 0.00534297 8.10624e-14)
(-2.1481e-09 0.0053528 1.46916e-13)
(-2.15387e-09 0.00536361 1.48957e-13)
(-2.15873e-09 0.00537443 1.46915e-13)
(-2.16342e-09 0.00538426 8.13562e-14)
(-2.16134e-09 0.00538666 8.1579e-14)
(-2.16593e-09 0.00539649 1.46477e-13)
(-2.171e-09 0.00540731 1.49311e-13)
(-2.17644e-09 0.00541813 1.46608e-13)
(-2.18066e-09 0.00542796 8.1603e-14)
(-2.17898e-09 0.00543036 8.13668e-14)
(-2.18323e-09 0.00544019 1.46646e-13)
(-2.18858e-09 0.00545101 1.49159e-13)
(-2.19379e-09 0.00546182 1.46723e-13)
(-2.19819e-09 0.00547165 8.14969e-14)
(-2.19636e-09 0.00547405 8.14497e-14)
(-2.20074e-09 0.00548388 1.46568e-13)
(-2.20599e-09 0.0054947 1.49214e-13)
(-2.21128e-09 0.00550552 1.46664e-13)
(-2.21561e-09 0.00551535 8.15386e-14)
(-2.21383e-09 0.00551775 8.1407e-14)
(-2.21818e-09 0.00552758 1.46598e-13)
(-2.22345e-09 0.0055384 1.49176e-13)
(-2.22872e-09 0.00554921 1.46688e-13)
(-2.23307e-09 0.00555904 8.15054e-14)
(-2.23129e-09 0.00556144 8.14335e-14)
(-2.23562e-09 0.00557127 1.46562e-13)
(-2.24091e-09 0.00558209 1.49202e-13)
(-2.24616e-09 0.00559291 1.46647e-13)
(-2.25054e-09 0.00560274 8.15416e-14)
(-2.24871e-09 0.00560514 8.13852e-14)
(-2.25311e-09 0.00561497 1.46609e-13)
(-2.25832e-09 0.00562579 1.49135e-13)
(-2.26367e-09 0.00563661 1.46713e-13)
(-2.26792e-09 0.00564644 8.14521e-14)
(-2.26624e-09 0.00564883 8.14845e-14)
(-2.27046e-09 0.00565866 1.46482e-13)
(-2.27589e-09 0.00566948 1.49274e-13)
(-2.28097e-09 0.0056803 1.46533e-13)
(-2.28556e-09 0.00569013 8.16571e-14)
(-2.28348e-09 0.00569253 8.12318e-14)
(-2.28817e-09 0.00570236 1.46776e-13)
(-2.29303e-09 0.00571318 1.48909e-13)
(-2.2988e-09 0.005724 1.46958e-13)
(-2.30255e-09 0.00573383 8.11367e-14)
(-2.30148e-09 0.00573622 8.18539e-14)
(-2.30497e-09 0.00574606 1.46061e-13)
(-2.31128e-09 0.00575688 1.50489e-13)
(-2.31538e-09 0.00576779 1.50546e-13)
(-2.32169e-09 0.00577862 1.46199e-13)
(-2.32518e-09 0.00578845 8.19812e-14)
(-2.32411e-09 0.00579084 8.10643e-14)
(-2.32786e-09 0.00580067 1.46915e-13)
(-2.33363e-09 0.00581149 1.48953e-13)
(-2.33849e-09 0.00582231 1.46906e-13)
(-2.34318e-09 0.00583214 8.13506e-14)
(-2.3411e-09 0.00583454 8.15794e-14)
(-2.34569e-09 0.00584437 1.46478e-13)
(-2.35076e-09 0.00585519 1.49305e-13)
(-2.3562e-09 0.00586601 1.46602e-13)
(-2.36041e-09 0.00587584 8.15947e-14)
(-2.35874e-09 0.00587823 8.13711e-14)
(-2.36299e-09 0.00588807 1.46643e-13)
(-2.36835e-09 0.00589888 1.49159e-13)
(-2.37355e-09 0.0059097 1.46712e-13)
(-2.37796e-09 0.00591953 8.14965e-14)
(-2.37611e-09 0.00592193 8.14452e-14)
(-2.38051e-09 0.00593176 1.46576e-13)
(-2.38574e-09 0.00594258 1.49202e-13)
(-2.39105e-09 0.0059534 1.46669e-13)
(-2.39536e-09 0.00596323 8.15197e-14)
(-2.39361e-09 0.00596563 8.14252e-14)
(-2.39792e-09 0.00597546 1.46579e-13)
(-2.40323e-09 0.00598627 1.49196e-13)
(-2.40846e-09 0.00599709 1.46654e-13)
(-2.41286e-09 0.00600692 8.15337e-14)
(-2.41101e-09 0.00600932 8.13957e-14)
(-2.41542e-09 0.00601915 1.46611e-13)
(-2.42062e-09 0.00602997 1.49142e-13)
(-2.42598e-09 0.00604079 1.4671e-13)
(-2.43023e-09 0.00605062 8.14534e-14)
(-2.42856e-09 0.00605302 8.14877e-14)
(-2.43277e-09 0.00606285 1.4649e-13)
(-2.4382e-09 0.00607367 1.49277e-13)
(-2.44327e-09 0.00608448 1.46535e-13)
(-2.44787e-09 0.00609431 8.1655e-14)
(-2.44578e-09 0.00609671 8.12382e-14)
(-2.45048e-09 0.00610654 1.46782e-13)
(-2.45534e-09 0.00611736 1.48914e-13)
(-2.46111e-09 0.00612818 1.46958e-13)
(-2.46486e-09 0.00613801 8.11364e-14)
(-2.46379e-09 0.00614041 8.18592e-14)
(-2.46728e-09 0.00615024 1.46069e-13)
(-2.47358e-09 0.00616106 1.50493e-13)
(-2.47769e-09 0.00617197 1.50548e-13)
(-2.484e-09 0.0061828 1.46197e-13)
(-2.48749e-09 0.00619263 8.1979e-14)
(-2.48642e-09 0.00619503 8.10676e-14)
(-2.49017e-09 0.00620486 1.46919e-13)
(-2.49594e-09 0.00621568 1.48953e-13)
(-2.5008e-09 0.00622649 1.46906e-13)
(-2.50549e-09 0.00623632 8.13474e-14)
(-2.50341e-09 0.00623872 8.15845e-14)
(-2.508e-09 0.00624855 1.46481e-13)
(-2.51307e-09 0.00625937 1.49309e-13)
(-2.51851e-09 0.00627019 1.46599e-13)
(-2.52272e-09 0.00628002 8.15948e-14)
(-2.52104e-09 0.00628242 8.13727e-14)
(-2.5253e-09 0.00629225 1.46651e-13)
(-2.53065e-09 0.00630307 1.49157e-13)
(-2.53586e-09 0.00631388 1.46716e-13)
(-2.54026e-09 0.00632371 8.14893e-14)
(-2.53843e-09 0.00632611 8.1456e-14)
(-2.54281e-09 0.00633594 1.46573e-13)
(-2.54805e-09 0.00634676 1.49213e-13)
(-2.55335e-09 0.00635758 1.46657e-13)
(-2.55768e-09 0.00636741 8.15315e-14)
(-2.5559e-09 0.00636981 8.14135e-14)
(-2.56025e-09 0.00637964 1.46604e-13)
(-2.56552e-09 0.00639046 1.49176e-13)
(-2.57079e-09 0.00640128 1.46682e-13)
(-2.57514e-09 0.00641111 8.14989e-14)
(-2.57335e-09 0.0064135 8.14405e-14)
(-2.57769e-09 0.00642333 1.46568e-13)
(-2.58298e-09 0.00643415 1.49203e-13)
(-2.58823e-09 0.00644497 1.46641e-13)
(-2.59261e-09 0.0064548 8.15356e-14)
(-2.59078e-09 0.0064572 8.13924e-14)
(-2.59518e-09 0.00646703 1.46616e-13)
(-2.60039e-09 0.00647785 1.49136e-13)
(-2.60574e-09 0.00648867 1.46709e-13)
(-2.60999e-09 0.0064985 8.14466e-14)
(-2.60831e-09 0.00650089 8.14921e-14)
(-2.61253e-09 0.00651073 1.4649e-13)
(-2.61796e-09 0.00652154 1.49277e-13)
(-2.62304e-09 0.00653236 1.46529e-13)
(-2.62763e-09 0.00654219 8.16522e-14)
(-2.62555e-09 0.00654459 8.12397e-14)
(-2.63024e-09 0.00655442 1.46785e-13)
(-2.6351e-09 0.00656524 1.48912e-13)
(-2.64087e-09 0.00657606 1.46955e-13)
(-2.64462e-09 0.00658589 8.11321e-14)
(-2.64355e-09 0.00658829 8.18623e-14)
(-2.64704e-09 0.00659812 1.4607e-13)
(-2.65334e-09 0.00660894 1.50493e-13)
(-2.65745e-09 0.00661985 1.50543e-13)
(-2.66376e-09 0.00663068 1.46191e-13)
(-2.66725e-09 0.00664051 8.19731e-14)
(-2.66618e-09 0.0066429 8.1069e-14)
(-2.66993e-09 0.00665274 1.46918e-13)
(-2.6757e-09 0.00666355 1.4895e-13)
(-2.68056e-09 0.00667437 1.46898e-13)
(-2.68525e-09 0.0066842 8.13432e-14)
(-2.68317e-09 0.0066866 8.15843e-14)
(-2.68776e-09 0.00669643 1.46482e-13)
(-2.69283e-09 0.00670725 1.49303e-13)
(-2.69827e-09 0.00671807 1.46595e-13)
(-2.70248e-09 0.0067279 8.15878e-14)
(-2.70081e-09 0.0067303 8.13764e-14)
(-2.70506e-09 0.00674013 1.46647e-13)
(-2.71041e-09 0.00675094 1.49158e-13)