/*--------------------------------*- C++ -*----------------------------------*\
| =========                 |                                                 |
| \\      /  F ield         | OpenFOAM: The Open Source CFD Toolbox           |
|  \\    /   O peration     | Version:  2206                                  |
|   \\  /    A nd           | Website:  www.openfoam.com                      |
|    \\/     M anipulation  |                                                 |
\*---------------------------------------------------------------------------*/
FoamFile
{
    version     2.0;
    format      ascii;
    arch        "LSB;label=32;scalar=64";
    class       volScalarField;
    location    "8";
    object      p;
}
// * * * * * * * * * * * * * * * * * * * * * * * * * * * * * * * * * * * * * //

dimensions      [0 2 -2 0 0 0 0];

internalField   nonuniform List<scalar> 
36000
(
18.4829
-125225
-245620
-267848
-249916
-245414
1.22669e+06
1.17395e+06
1.15206e+06
1.17978e+06
1.22304e+06
1.25632e+06
3.13991e+06
3.13236e+06
3.13898e+06
3.16807e+06
3.20274e+06
3.22706e+06
5.3588e+06
5.35406e+06
5.36324e+06
5.39272e+06
5.42121e+06
5.43906e+06
7.3691e+06
7.35142e+06
7.35612e+06
7.39647e+06
7.46022e+06
7.50703e+06
9.47897e+06
9.48536e+06
9.50775e+06
9.55549e+06
9.63046e+06
9.68849e+06
1.18083e+07
1.18136e+07
1.18115e+07
1.17946e+07
1.17818e+07
1.17911e+07
1.39232e+07
1.39159e+07
1.38964e+07
1.38687e+07
1.38505e+07
1.38423e+07
1.56768e+07
1.56559e+07
1.5644e+07
1.56458e+07
1.5649e+07
1.56531e+07
1.79715e+07
1.79521e+07
1.79299e+07
1.7925e+07
1.79266e+07
1.79353e+07
2.02687e+07
2.02625e+07
2.02652e+07
2.02952e+07
2.03162e+07
2.03221e+07
2.20545e+07
2.20622e+07
2.20887e+07
2.21604e+07
2.22187e+07
2.22388e+07
2.37233e+07
2.37318e+07
2.37512e+07
2.37808e+07
2.38177e+07
2.38454e+07
2.4738e+07
2.47499e+07
2.47805e+07
2.4826e+07
2.48766e+07
2.49093e+07
2.56021e+07
2.56129e+07
2.56428e+07
2.56906e+07
2.57438e+07
2.57773e+07
2.66357e+07
2.66415e+07
2.66621e+07
2.66975e+07
2.67394e+07
2.67702e+07
2.80139e+07
2.80119e+07
2.80178e+07
2.80368e+07
2.80683e+07
2.81016e+07
2.98419e+07
2.98429e+07
2.98471e+07
2.98605e+07
2.98834e+07
2.99115e+07
3.18419e+07
3.18496e+07
3.18623e+07
3.18767e+07
3.18944e+07
3.19143e+07
3.37057e+07
3.37126e+07
3.37246e+07
3.3739e+07
3.37557e+07
3.37719e+07
3.54694e+07
3.54737e+07
3.54825e+07
3.54949e+07
3.55093e+07
3.55221e+07
3.72289e+07
3.72325e+07
3.72414e+07
3.72538e+07
3.72671e+07
3.72786e+07
3.90078e+07
3.90136e+07
3.90261e+07
3.90409e+07
3.90548e+07
3.90658e+07
4.07938e+07
4.08026e+07
4.08192e+07
4.08369e+07
4.08518e+07
4.08622e+07
4.25491e+07
4.25606e+07
4.25808e+07
4.26018e+07
4.26183e+07
4.26288e+07
4.4228e+07
4.42411e+07
4.42645e+07
4.42895e+07
4.43094e+07
4.43219e+07
4.57883e+07
4.58013e+07
4.58268e+07
4.58565e+07
4.58834e+07
4.5901e+07
4.72289e+07
4.72407e+07
4.72696e+07
4.73055e+07
4.73442e+07
4.73698e+07
4.86298e+07
4.86405e+07
4.86745e+07
4.87178e+07
4.87625e+07
4.87841e+07
5.01503e+07
5.01473e+07
5.01582e+07
5.01736e+07
5.01816e+07
5.01878e+07
5.23734e+07
5.23734e+07
5.23796e+07
5.23836e+07
5.23787e+07
5.23842e+07
5.46777e+07
5.46796e+07
5.4685e+07
5.46848e+07
5.46932e+07
5.47164e+07
5.64385e+07
5.6437e+07
5.64452e+07
5.64626e+07
5.64975e+07
5.65232e+07
5.82839e+07
5.82867e+07
5.82965e+07
5.83018e+07
5.82962e+07
5.82941e+07
6.05199e+07
6.05149e+07
6.04893e+07
6.04591e+07
6.04374e+07
6.04305e+07
6.3366e+07
6.33633e+07
6.33577e+07
6.33469e+07
6.33446e+07
6.34011e+07
6.63981e+07
6.63573e+07
6.63092e+07
6.62911e+07
6.63152e+07
6.63483e+07
7.03539e+07
7.03178e+07
7.03346e+07
7.03567e+07
7.03858e+07
7.04045e+07
7.45927e+07
7.46095e+07
7.46685e+07
7.47156e+07
7.47466e+07
7.47689e+07
7.92348e+07
7.92252e+07
7.92017e+07
7.91746e+07
7.91751e+07
7.91907e+07
8.44322e+07
8.44049e+07
8.43382e+07
8.42608e+07
8.42145e+07
8.41879e+07
8.93604e+07
8.93493e+07
8.93141e+07
8.92985e+07
8.92961e+07
8.93059e+07
9.48238e+07
9.4836e+07
9.4866e+07
9.48918e+07
9.49026e+07
9.49393e+07
1.02588e+08
1.02553e+08
1.02525e+08
1.02471e+08
1.02392e+08
1.0232e+08
1.08775e+08
1.08744e+08
1.08718e+08
1.08703e+08
1.08659e+08
1.08587e+08
1.11354e+08
1.11335e+08
1.11322e+08
1.11353e+08
1.11397e+08
1.11415e+08
1.14291e+08
1.14255e+08
1.14184e+08
1.1412e+08
1.14099e+08
1.141e+08
1.17268e+08
1.17241e+08
1.17189e+08
1.17125e+08
1.17084e+08
1.17059e+08
1.19749e+08
1.19763e+08
1.19778e+08
1.19772e+08
1.19748e+08
1.1972e+08
1.21635e+08
1.21642e+08
1.21654e+08
1.2167e+08
1.21682e+08
1.21685e+08
1.23245e+08
1.23256e+08
1.23276e+08
1.23297e+08
1.23311e+08
1.23317e+08
1.24562e+08
1.24575e+08
1.24599e+08
1.24626e+08
1.24648e+08
1.24659e+08
1.25758e+08
1.25769e+08
1.25791e+08
1.25817e+08
1.25841e+08
1.25856e+08
1.26954e+08
1.26963e+08
1.26981e+08
1.27004e+08
1.27026e+08
1.27043e+08
1.28211e+08
1.28218e+08
1.28232e+08
1.28252e+08
1.28273e+08
1.28289e+08
1.29548e+08
1.29553e+08
1.29566e+08
1.29585e+08
1.29606e+08
1.29622e+08
1.30969e+08
1.30969e+08
1.30975e+08
1.3099e+08
1.3101e+08
1.31027e+08
1.32549e+08
1.32544e+08
1.3254e+08
1.32542e+08
1.32552e+08
1.32565e+08
1.34257e+08
1.34258e+08
1.34255e+08
1.3425e+08
1.34248e+08
1.34249e+08
1.35805e+08
1.35811e+08
1.35819e+08
1.35821e+08
1.3582e+08
1.35818e+08
1.37073e+08
1.37078e+08
1.37086e+08
1.37094e+08
1.37101e+08
1.37103e+08
1.38186e+08
1.38189e+08
1.38195e+08
1.38203e+08
1.3821e+08
1.38214e+08
1.39254e+08
1.39255e+08
1.39262e+08
1.3927e+08
1.39278e+08
1.39283e+08
1.40391e+08
1.40391e+08
1.40395e+08
1.40402e+08
1.4041e+08
1.40416e+08
1.41662e+08
1.41662e+08
1.41665e+08
1.4167e+08
1.41677e+08
1.41684e+08
1.43095e+08
1.43095e+08
1.43098e+08
1.43104e+08
1.43111e+08
1.43117e+08
1.44707e+08
1.44709e+08
1.44713e+08
1.44719e+08
1.44727e+08
1.44733e+08
1.46475e+08
1.46478e+08
1.46485e+08
1.46494e+08
1.46502e+08
1.46508e+08
1.48363e+08
1.48368e+08
1.48378e+08
1.4839e+08
1.484e+08
1.48408e+08
1.50342e+08
1.50347e+08
1.50357e+08
1.5037e+08
1.50383e+08
1.50393e+08
1.52416e+08
1.52419e+08
1.52427e+08
1.52439e+08
1.52453e+08
1.52465e+08
1.54594e+08
1.54596e+08
1.54601e+08
1.54611e+08
1.54623e+08
1.54635e+08
1.56871e+08
1.56872e+08
1.56876e+08
1.56883e+08
1.56892e+08
1.56902e+08
1.59249e+08
1.59249e+08
1.59251e+08
1.59256e+08
1.59262e+08
1.59269e+08
1.61697e+08
1.61696e+08
1.61696e+08
1.61698e+08
1.61702e+08
1.61706e+08
1.64178e+08
1.64175e+08
1.6417e+08
1.64169e+08
1.6417e+08
1.64172e+08
1.66682e+08
1.66676e+08
1.66667e+08
1.66661e+08
1.66657e+08
1.66657e+08
1.69292e+08
1.69284e+08
1.69273e+08
1.69264e+08
1.69257e+08
1.69256e+08
1.72034e+08
1.72032e+08
1.72028e+08
1.72025e+08
1.72022e+08
1.72022e+08
1.74755e+08
1.74759e+08
1.74765e+08
1.74769e+08
1.74772e+08
1.74773e+08
1.77361e+08
1.77365e+08
1.77372e+08
1.77375e+08
1.77375e+08
1.77375e+08
1.79913e+08
1.79915e+08
1.79917e+08
1.79915e+08
1.79911e+08
1.79906e+08
1.82513e+08
1.82511e+08
1.82508e+08
1.82501e+08
1.82492e+08
1.82485e+08
1.85228e+08
1.85225e+08
1.85218e+08
1.85208e+08
1.85197e+08
1.85193e+08
1.88017e+08
1.88021e+08
1.88027e+08
1.8803e+08
1.88031e+08
1.88035e+08
1.9062e+08
1.90633e+08
1.9066e+08
1.90688e+08
1.90713e+08
1.90735e+08
1.92973e+08
1.92978e+08
1.93e+08
1.9303e+08
1.93061e+08
1.93088e+08
1.95495e+08
1.955e+08
1.95519e+08
1.95537e+08
1.95554e+08
1.95565e+08
1.98256e+08
1.98245e+08
1.98236e+08
1.98214e+08
1.98197e+08
1.98187e+08
2.0185e+08
2.01849e+08
2.01833e+08
2.01801e+08
2.01752e+08
2.01716e+08
2.05117e+08
2.05139e+08
2.05176e+08
2.05203e+08
2.05204e+08
2.05195e+08
2.06987e+08
2.06972e+08
2.06968e+08
2.07033e+08
2.07115e+08
2.07172e+08
2.08673e+08
2.08634e+08
2.08583e+08
2.08582e+08
2.08624e+08
2.08676e+08
2.10788e+08
2.10764e+08
2.10747e+08
2.10758e+08
2.10787e+08
2.10818e+08
2.13406e+08
2.13417e+08
2.13419e+08
2.13402e+08
2.13386e+08
2.13381e+08
2.16123e+08
2.16122e+08
2.16118e+08
2.16108e+08
2.16097e+08
2.1609e+08
2.18995e+08
2.1899e+08
2.18982e+08
2.1898e+08
2.18981e+08
2.18985e+08
2.2204e+08
2.2204e+08
2.22038e+08
2.2204e+08
2.22044e+08
2.2205e+08
2.25089e+08
2.2509e+08
2.25091e+08
2.25094e+08
2.25097e+08
2.251e+08
2.28116e+08
2.28115e+08
2.28116e+08
2.28117e+08
2.28119e+08
2.28121e+08
2.31161e+08
2.31159e+08
2.31155e+08
2.31153e+08
2.31152e+08
2.31153e+08
2.34279e+08
2.3428e+08
2.34276e+08
2.34269e+08
2.34262e+08
2.34258e+08
2.3738e+08
2.37388e+08
2.37396e+08
2.37397e+08
2.37392e+08
2.37388e+08
2.4021e+08
2.40221e+08
2.40239e+08
2.40254e+08
2.40264e+08
2.4027e+08
2.42724e+08
2.42733e+08
2.42754e+08
2.42775e+08
2.42795e+08
2.42807e+08
2.45057e+08
2.45066e+08
2.4509e+08
2.45115e+08
2.45137e+08
2.45149e+08
2.47317e+08
2.47321e+08
2.47341e+08
2.47364e+08
2.47382e+08
2.4739e+08
2.49706e+08
2.497e+08
2.497e+08
2.49703e+08
2.49705e+08
2.49706e+08
2.52436e+08
2.52446e+08
2.52456e+08
2.52461e+08
2.52465e+08
2.52472e+08
2.54922e+08
2.54944e+08
2.54977e+08
2.55004e+08
2.55023e+08
2.55036e+08
2.56886e+08
2.56885e+08
2.56894e+08
2.56924e+08
2.5696e+08
2.56987e+08
2.58823e+08
2.58809e+08
2.58803e+08
2.58805e+08
2.58813e+08
2.58825e+08
2.60707e+08
2.60683e+08
2.60661e+08
2.60665e+08
2.60688e+08
2.607e+08
2.62962e+08
2.62957e+08
2.6301e+08
2.63094e+08
2.63157e+08
2.6319e+08
2.65215e+08
2.65224e+08
2.65261e+08
2.65309e+08
2.65354e+08
2.65384e+08
2.6722e+08
2.67186e+08
2.67115e+08
2.6706e+08
2.67072e+08
2.67105e+08
2.69769e+08
2.69759e+08
2.6974e+08
2.69726e+08
2.69708e+08
2.69693e+08
2.71604e+08
2.71544e+08
2.71477e+08
2.71439e+08
2.71378e+08
2.71352e+08
2.71995e+08
2.71959e+08
2.71941e+08
2.71946e+08
2.71974e+08
2.71996e+08
2.72843e+08
2.72831e+08
2.72829e+08
2.72878e+08
2.72928e+08
2.72947e+08
2.74218e+08
2.74211e+08
2.74197e+08
2.74188e+08
2.74196e+08
2.74198e+08
2.75748e+08
2.75734e+08
2.75723e+08
2.75703e+08
2.75677e+08
2.7565e+08
2.77626e+08
2.77587e+08
2.77546e+08
2.77514e+08
2.7749e+08
2.77473e+08
2.80347e+08
2.80298e+08
2.80221e+08
2.80146e+08
2.80077e+08
2.80038e+08
2.83724e+08
2.83707e+08
2.83655e+08
2.83581e+08
2.83489e+08
2.83411e+08
2.87287e+08
2.87276e+08
2.87274e+08
2.87273e+08
2.87239e+08
2.87185e+08
2.90989e+08
2.91002e+08
2.91042e+08
2.91065e+08
2.91074e+08
2.91068e+08
2.94101e+08
2.94126e+08
2.94169e+08
2.94201e+08
2.94227e+08
2.9424e+08
2.9695e+08
2.96949e+08
2.96951e+08
2.96971e+08
2.96989e+08
2.96996e+08
3.0027e+08
3.00266e+08
3.00258e+08
3.0021e+08
3.00158e+08
3.00129e+08
3.03327e+08
3.03314e+08
3.03288e+08
3.03246e+08
3.03202e+08
3.03177e+08
3.05877e+08
3.05853e+08
3.0579e+08
3.05753e+08
3.05751e+08
3.05776e+08
3.08168e+08
3.08143e+08
3.08076e+08
3.0804e+08
3.0807e+08
3.08132e+08
3.10487e+08
3.10434e+08
3.10355e+08
3.10293e+08
3.10321e+08
3.10364e+08
3.14558e+08
3.14545e+08
3.14502e+08
3.14461e+08
3.14439e+08
3.14418e+08
3.18835e+08
3.18857e+08
3.18878e+08
3.18882e+08
3.18882e+08
3.1888e+08
3.22025e+08
3.22026e+08
3.2205e+08
3.22082e+08
3.22123e+08
3.22147e+08
3.25231e+08
3.2523e+08
3.25245e+08
3.25272e+08
3.25296e+08
3.25306e+08
3.28597e+08
3.28599e+08
3.28604e+08
3.28616e+08
3.2862e+08
3.28624e+08
3.31859e+08
3.3186e+08
3.31849e+08
3.31853e+08
3.31863e+08
3.31877e+08
3.34878e+08
3.3489e+08
3.34888e+08
3.3488e+08
3.34876e+08
3.34876e+08
3.37243e+08
3.37259e+08
3.37278e+08
3.3728e+08
3.37269e+08
3.37258e+08
3.38826e+08
3.38839e+08
3.38858e+08
3.38872e+08
3.38878e+08
3.38875e+08
3.39938e+08
3.39951e+08
3.39972e+08
3.39993e+08
3.40008e+08
3.40013e+08
3.40742e+08
3.40754e+08
3.40773e+08
3.40795e+08
3.40814e+08
3.40824e+08
3.41365e+08
3.41374e+08
3.4139e+08
3.41411e+08
3.4143e+08
3.41441e+08
3.41942e+08
3.41949e+08
3.41964e+08
3.41983e+08
3.42002e+08
3.42012e+08
3.42605e+08
3.42608e+08
3.42621e+08
3.42639e+08
3.42658e+08
3.42669e+08
3.4345e+08
3.4345e+08
3.4346e+08
3.43478e+08
3.43497e+08
3.4351e+08
3.44556e+08
3.44546e+08
3.44543e+08
3.44552e+08
3.44569e+08
3.44583e+08
3.46147e+08
3.46129e+08
3.46104e+08
3.46093e+08
3.46096e+08
3.46109e+08
3.48108e+08
3.48097e+08
3.4807e+08
3.4804e+08
3.48018e+08
3.48009e+08
3.49829e+08
3.4983e+08
3.49824e+08
3.49809e+08
3.4979e+08
3.49775e+08
3.5123e+08
3.51228e+08
3.51221e+08
3.51211e+08
3.51199e+08
3.51189e+08
3.52465e+08
3.52462e+08
3.52456e+08
3.52445e+08
3.52434e+08
3.52423e+08
3.53557e+08
3.53555e+08
3.5355e+08
3.53542e+08
3.53532e+08
3.53523e+08
3.5454e+08
3.54538e+08
3.54533e+08
3.54526e+08
3.54517e+08
3.54509e+08
3.55429e+08
3.55428e+08
3.55425e+08
3.55419e+08
3.55411e+08
3.55404e+08
3.5623e+08
3.56231e+08
3.56231e+08
3.56227e+08
3.56222e+08
3.56217e+08
3.56947e+08
3.56949e+08
3.56951e+08
3.56951e+08
3.56948e+08
3.56946e+08
3.57615e+08
3.57619e+08
3.57626e+08
3.5763e+08
3.57633e+08
3.57633e+08
3.58272e+08
3.58278e+08
3.5829e+08
3.58301e+08
3.5831e+08
3.58312e+08
3.59065e+08
3.5907e+08
3.5909e+08
3.59106e+08
3.59114e+08
3.59117e+08
3.60199e+08
3.60163e+08
3.60147e+08
3.60149e+08
3.60166e+08
3.60188e+08
3.64009e+08
3.63955e+08
3.63889e+08
3.63842e+08
3.63814e+08
3.63808e+08
3.70107e+08
3.7011e+08
3.70099e+08
3.70081e+08
3.70053e+08
3.70022e+08
3.75237e+08
3.75268e+08
3.75313e+08
3.7536e+08
3.75381e+08
3.75381e+08
3.79315e+08
3.79327e+08
3.79338e+08
3.79343e+08
3.79347e+08
3.79351e+08
3.82938e+08
3.82945e+08
3.82947e+08
3.82924e+08
3.82895e+08
3.82876e+08
3.84993e+08
3.85007e+08
3.85057e+08
3.85108e+08
3.85128e+08
3.85125e+08
3.85494e+08
3.85489e+08
3.85537e+08
3.85669e+08
3.85768e+08
3.85808e+08
3.86637e+08
3.86532e+08
3.86219e+08
3.86067e+08
3.86108e+08
3.86184e+08
3.87705e+08
3.87619e+08
3.87352e+08
3.87174e+08
3.87158e+08
3.87229e+08
3.886e+08
3.88543e+08
3.88513e+08
3.88533e+08
3.88637e+08
3.88769e+08
3.90911e+08
3.90894e+08
3.9091e+08
3.90997e+08
3.91079e+08
3.91108e+08
3.93232e+08
3.93248e+08
3.93267e+08
3.93284e+08
3.93295e+08
3.933e+08
3.95263e+08
3.95283e+08
3.9531e+08
3.95361e+08
3.95421e+08
3.95469e+08
3.98416e+08
3.98445e+08
3.98465e+08
3.9848e+08
3.98501e+08
3.98541e+08
4.01443e+08
4.01388e+08
4.01341e+08
4.01292e+08
4.01244e+08
4.0122e+08
4.02607e+08
4.02575e+08
4.02607e+08
4.02663e+08
4.02733e+08
4.02756e+08
4.04165e+08
4.04134e+08
4.04103e+08
4.0411e+08
4.04174e+08
4.04276e+08
4.05709e+08
4.05683e+08
4.05579e+08
4.05524e+08
4.05511e+08
4.05538e+08
4.07904e+08
4.07875e+08
4.07799e+08
4.0776e+08
4.07748e+08
4.07758e+08
4.10061e+08
4.10044e+08
4.10052e+08
4.10057e+08
4.10069e+08
4.10079e+08
4.12348e+08
4.12364e+08
4.12379e+08
4.12382e+08
4.12389e+08
4.12392e+08
4.1469e+08
4.14688e+08
4.14663e+08
4.14628e+08
4.14601e+08
4.14592e+08
4.16178e+08
4.16179e+08
4.16178e+08
4.16168e+08
4.16164e+08
4.1619e+08
4.1885e+08
4.18844e+08
4.18847e+08
4.18853e+08
4.18883e+08
4.18906e+08
4.21418e+08
4.21425e+08
4.21446e+08
4.21455e+08
4.21495e+08
4.21525e+08
4.22429e+08
4.22381e+08
4.22303e+08
4.22245e+08
4.22241e+08
4.22273e+08
4.24441e+08
4.24424e+08
4.24381e+08
4.24344e+08
4.24336e+08
4.24344e+08
4.26518e+08
4.26495e+08
4.2647e+08
4.26451e+08
4.26439e+08
4.26432e+08
4.27944e+08
4.27921e+08
4.27887e+08
4.27869e+08
4.27865e+08
4.27873e+08
4.29506e+08
4.29493e+08
4.29468e+08
4.29446e+08
4.29441e+08
4.29448e+08
4.31192e+08
4.31176e+08
4.31162e+08
4.31156e+08
4.31169e+08
4.31184e+08
4.33312e+08
4.33298e+08
4.33294e+08
4.33302e+08
4.33328e+08
4.33343e+08
4.35889e+08
4.35893e+08
4.35902e+08
4.35913e+08
4.35912e+08
4.35903e+08
4.38196e+08
4.38204e+08
4.3821e+08
4.38205e+08
4.38188e+08
4.38174e+08
4.40065e+08
4.40066e+08
4.40062e+08
4.40057e+08
4.40051e+08
4.40047e+08
4.41771e+08
4.41774e+08
4.41771e+08
4.41768e+08
4.4176e+08
4.41755e+08
4.43243e+08
4.43244e+08
4.43242e+08
4.43237e+08
4.43227e+08
4.43217e+08
4.44392e+08
4.44389e+08
4.4438e+08
4.44367e+08
4.44351e+08
4.44336e+08
4.45208e+08
4.45199e+08
4.45177e+08
4.45158e+08
4.45145e+08
4.45136e+08
4.45953e+08
4.45948e+08
4.45922e+08
4.45902e+08
4.45891e+08
4.45888e+08
4.46748e+08
4.46753e+08
4.46756e+08
4.46747e+08
4.46749e+08
4.46763e+08
4.48077e+08
4.48081e+08
4.48115e+08
4.48186e+08
4.4825e+08
4.48283e+08
4.50602e+08
4.50594e+08
4.50584e+08
4.50587e+08
4.50592e+08
4.50587e+08
4.53654e+08
4.5366e+08
4.53641e+08
4.53638e+08
4.53656e+08
4.53679e+08
4.56696e+08
4.56705e+08
4.56718e+08
4.56724e+08
4.56727e+08
4.56739e+08
4.58873e+08
4.58846e+08
4.58845e+08
4.58836e+08
4.58814e+08
4.58831e+08
4.60615e+08
4.60582e+08
4.60565e+08
4.60553e+08
4.60543e+08
4.60553e+08
4.62412e+08
4.62388e+08
4.62352e+08
4.62325e+08
4.62307e+08
4.62305e+08
4.63623e+08
4.63632e+08
4.63626e+08
4.63605e+08
4.63584e+08
4.63564e+08
4.64384e+08
4.64354e+08
4.64281e+08
4.64208e+08
4.64194e+08
4.64193e+08
4.64461e+08
4.6445e+08
4.64412e+08
4.64352e+08
4.64336e+08
4.64351e+08
4.63914e+08
4.63887e+08
4.63869e+08
4.63965e+08
4.64059e+08
4.64101e+08
4.64036e+08
4.64002e+08
4.64052e+08
4.64181e+08
4.64255e+08
4.64263e+08
4.64925e+08
4.64924e+08
4.64949e+08
4.64996e+08
4.65035e+08
4.65035e+08
4.65744e+08
4.65735e+08
4.65731e+08
4.65741e+08
4.65746e+08
4.65734e+08
4.66695e+08
4.66689e+08
4.66667e+08
4.66631e+08
4.66621e+08
4.66624e+08
4.67708e+08
4.67712e+08
4.67711e+08
4.67703e+08
4.67705e+08
4.67721e+08
4.68822e+08
4.68815e+08
4.68814e+08
4.68824e+08
4.68829e+08
4.68828e+08
4.70207e+08
4.70203e+08
4.70196e+08
4.70187e+08
4.70176e+08
4.70166e+08
4.71884e+08
4.71887e+08
4.71889e+08
4.71887e+08
4.71885e+08
4.71886e+08
4.73882e+08
4.73882e+08
4.73881e+08
4.73876e+08
4.73876e+08
4.73878e+08
4.76424e+08
4.76411e+08
4.76406e+08
4.76392e+08
4.76385e+08
4.76384e+08
4.79487e+08
4.79467e+08
4.79439e+08
4.79422e+08
4.79404e+08
4.79404e+08
4.81618e+08
4.816e+08
4.81602e+08
4.81637e+08
4.81665e+08
4.81703e+08
4.83333e+08
4.83327e+08
4.83341e+08
4.83391e+08
4.83443e+08
4.8348e+08
4.85906e+08
4.85881e+08
4.85802e+08
4.85717e+08
4.85679e+08
4.85669e+08
4.88415e+08
4.88369e+08
4.88335e+08
4.88377e+08
4.88401e+08
4.88402e+08
4.91015e+08
4.91024e+08
4.91042e+08
4.91128e+08
4.91234e+08
4.91317e+08
4.94088e+08
4.94114e+08
4.94172e+08
4.94236e+08
4.94287e+08
4.94327e+08
4.97868e+08
4.9787e+08
4.97884e+08
4.97897e+08
4.97882e+08
4.97889e+08
5.00739e+08
5.0073e+08
5.00718e+08
5.00729e+08
5.00722e+08
5.00703e+08
5.02756e+08
5.02701e+08
5.02619e+08
5.02565e+08
5.02543e+08
5.02519e+08
5.05104e+08
5.05082e+08
5.05038e+08
5.04996e+08
5.04963e+08
5.04941e+08
5.06774e+08
5.0674e+08
5.06706e+08
5.06685e+08
5.06668e+08
5.06666e+08
5.07778e+08
5.07719e+08
5.07711e+08
5.07731e+08
5.0775e+08
5.07782e+08
5.09494e+08
5.09455e+08
5.09446e+08
5.09505e+08
5.09577e+08
5.09631e+08
5.11077e+08
5.11035e+08
5.11004e+08
5.11025e+08
5.11061e+08
5.11094e+08
5.12801e+08
5.12806e+08
5.12823e+08
5.12864e+08
5.12888e+08
5.12887e+08
5.14896e+08
5.14915e+08
5.14955e+08
5.15012e+08
5.15058e+08
5.15077e+08
5.16853e+08
5.16823e+08
5.16759e+08
5.16679e+08
5.16712e+08
5.16761e+08
5.19216e+08
5.19197e+08
5.19131e+08
5.1905e+08
5.19035e+08
5.1905e+08
5.21648e+08
5.21638e+08
5.2163e+08
5.21628e+08
5.21611e+08
5.21606e+08
5.23596e+08
5.23591e+08
5.23597e+08
5.23608e+08
5.23609e+08
5.23605e+08
5.2522e+08
5.25213e+08
5.25209e+08
5.25208e+08
5.25209e+08
5.25211e+08
5.2672e+08
5.26718e+08
5.26715e+08
5.26711e+08
5.26707e+08
5.26705e+08
5.28054e+08
5.28052e+08
5.28047e+08
5.28042e+08
5.28037e+08
5.28033e+08
5.29244e+08
5.2924e+08
5.29234e+08
5.29228e+08
5.29224e+08
5.29221e+08
5.3035e+08
5.30345e+08
5.30339e+08
5.30333e+08
5.30329e+08
5.30327e+08
5.31414e+08
5.3141e+08
5.31404e+08
5.31399e+08
5.31395e+08
5.31393e+08
5.32458e+08
5.32454e+08
5.32449e+08
5.32444e+08
5.3244e+08
5.32439e+08
5.33492e+08
5.33488e+08
5.33483e+08
5.33478e+08
5.33475e+08
5.33474e+08
5.34532e+08
5.34528e+08
5.34523e+08
5.34519e+08
5.34517e+08
5.34517e+08
5.35618e+08
5.35614e+08
5.3561e+08
5.35607e+08
5.35608e+08
5.35609e+08
5.36794e+08
5.36791e+08
5.36787e+08
5.36786e+08
5.36788e+08
5.36791e+08
5.38076e+08
5.38074e+08
5.38073e+08
5.38073e+08
5.38076e+08
5.38078e+08
5.39469e+08
5.39468e+08
5.39467e+08
5.39468e+08
5.39471e+08
5.39473e+08
5.40955e+08
5.40955e+08
5.40955e+08
5.40956e+08
5.40959e+08
5.4096e+08
5.42515e+08
5.42515e+08
5.42515e+08
5.42517e+08
5.42518e+08
5.4252e+08
5.44135e+08
5.44136e+08
5.44136e+08
5.44137e+08
5.44138e+08
5.4414e+08
5.45806e+08
5.45806e+08
5.45806e+08
5.45807e+08
5.45809e+08
5.45811e+08
5.4754e+08
5.47539e+08
5.47539e+08
5.47539e+08
5.47541e+08
5.47542e+08
5.49337e+08
5.49335e+08
5.49333e+08
5.49333e+08
5.49333e+08
5.49334e+08
5.51202e+08
5.51201e+08
5.51199e+08
5.51199e+08
5.51199e+08
5.51201e+08
5.53181e+08
5.5318e+08
5.5318e+08
5.53181e+08
5.53185e+08
5.53187e+08
5.55313e+08
5.55313e+08
5.55314e+08
5.55318e+08
5.55323e+08
5.55327e+08
5.57621e+08
5.57622e+08
5.57626e+08
5.57631e+08
5.57636e+08
5.5764e+08
5.60085e+08
5.60087e+08
5.60091e+08
5.60095e+08
5.601e+08
5.60102e+08
5.62655e+08
5.62656e+08
5.62659e+08
5.62661e+08
5.62664e+08
5.62666e+08
5.653e+08
5.653e+08
5.65302e+08
5.65304e+08
5.65307e+08
5.65309e+08
5.68027e+08
5.68028e+08
5.68031e+08
5.68034e+08
5.68037e+08
5.68038e+08
5.7083e+08
5.70833e+08
5.70836e+08
5.70838e+08
5.70839e+08
5.70839e+08
5.73658e+08
5.7366e+08
5.73661e+08
5.73662e+08
5.73663e+08
5.73664e+08
5.76502e+08
5.76503e+08
5.76504e+08
5.76505e+08
5.76508e+08
5.7651e+08
5.79378e+08
5.79378e+08
5.7938e+08
5.79381e+08
5.79382e+08
5.79382e+08
5.82229e+08
5.8223e+08
5.8223e+08
5.8223e+08
5.82228e+08
5.82226e+08
5.85016e+08
5.85017e+08
5.85016e+08
5.85015e+08
5.85014e+08
5.85013e+08
5.87782e+08
5.87782e+08
5.87782e+08
5.87782e+08
5.87784e+08
5.87785e+08
5.90575e+08
5.90576e+08
5.90577e+08
5.90578e+08
5.90579e+08
5.9058e+08
5.93387e+08
5.93387e+08
5.93388e+08
5.93389e+08
5.9339e+08
5.9339e+08
5.96209e+08
5.96208e+08
5.96208e+08
5.96209e+08
5.96211e+08
5.96214e+08
5.99081e+08
5.9908e+08
5.99081e+08
5.99082e+08
5.99086e+08
5.99088e+08
6.02004e+08
6.02005e+08
6.02006e+08
6.02008e+08
6.02009e+08
6.02009e+08
6.04909e+08
6.04909e+08
6.0491e+08
6.0491e+08
6.04908e+08
6.04907e+08
6.0776e+08
6.07759e+08
6.07757e+08
6.07755e+08
6.07755e+08
6.07756e+08
6.10633e+08
6.10631e+08
6.10628e+08
6.10628e+08
6.10631e+08
6.10634e+08
6.13591e+08
6.13589e+08
6.13589e+08
6.1359e+08
6.13592e+08
6.13595e+08
6.16614e+08
6.16613e+08
6.16614e+08
6.16616e+08
6.16619e+08
6.1662e+08
6.19673e+08
6.19674e+08
6.19676e+08
6.19679e+08
6.19681e+08
6.19682e+08
6.22758e+08
6.22759e+08
6.22762e+08
6.22766e+08
6.22767e+08
6.22768e+08
6.2585e+08
6.25852e+08
6.25855e+08
6.25857e+08
6.25857e+08
6.25857e+08
6.28905e+08
6.28906e+08
6.28908e+08
6.2891e+08
6.28908e+08
6.28907e+08
6.31901e+08
6.31902e+08
6.31903e+08
6.31904e+08
6.31902e+08
6.31901e+08
6.3484e+08
6.34841e+08
6.34841e+08
6.34842e+08
6.3484e+08
6.34839e+08
6.3773e+08
6.37731e+08
6.37732e+08
6.37733e+08
6.37732e+08
6.37732e+08
6.4058e+08
6.40582e+08
6.40583e+08
6.40584e+08
6.40583e+08
6.40583e+08
6.43399e+08
6.43399e+08
6.43399e+08
6.43399e+08
6.43399e+08
6.43398e+08
6.46187e+08
6.46187e+08
6.46188e+08
6.46188e+08
6.46187e+08
6.46186e+08
6.48932e+08
6.48933e+08
6.48934e+08
6.48934e+08
6.48933e+08
6.48932e+08
6.51638e+08
6.51637e+08
6.51637e+08
6.51635e+08
6.51635e+08
6.51636e+08
6.54344e+08
6.54342e+08
6.5434e+08
6.54338e+08
6.54341e+08
6.54343e+08
6.57082e+08
6.57081e+08
6.5708e+08
6.57081e+08
6.57084e+08
6.57085e+08
6.59851e+08
6.59851e+08
6.59853e+08
6.59855e+08
6.59856e+08
6.59857e+08
6.62641e+08
6.62642e+08
6.62643e+08
6.62645e+08
6.62646e+08
6.62647e+08
6.65454e+08
6.65454e+08
6.65455e+08
6.65456e+08
6.65458e+08
6.65459e+08
6.68298e+08
6.68298e+08
6.68299e+08
6.683e+08
6.68303e+08
6.68304e+08
6.71177e+08
6.71178e+08
6.71179e+08
6.71181e+08
6.71183e+08
6.71185e+08
6.74083e+08
6.74083e+08
6.74085e+08
6.74086e+08
6.74088e+08
6.74089e+08
6.76999e+08
6.77e+08
6.77001e+08
6.77002e+08
6.77003e+08
6.77004e+08
6.7992e+08
6.79921e+08
6.79921e+08
6.79922e+08
6.79924e+08
6.79925e+08
6.82848e+08
6.82849e+08
6.8285e+08
6.82851e+08
6.82852e+08
6.82853e+08
6.85785e+08
6.85785e+08
6.85786e+08
6.85787e+08
6.85789e+08
6.8579e+08
6.88727e+08
6.88728e+08
6.88728e+08
6.88729e+08
6.88731e+08
6.88731e+08
6.91674e+08
6.91674e+08
6.91675e+08
6.91676e+08
6.91677e+08
6.91678e+08
6.9463e+08
6.9463e+08
6.94631e+08
6.94632e+08
6.94634e+08
6.94635e+08
6.976e+08
6.97601e+08
6.97602e+08
6.97604e+08
6.97605e+08
6.97607e+08
7.00583e+08
7.00583e+08
7.00585e+08
7.00586e+08
7.00588e+08
7.0059e+08
7.03575e+08
7.03576e+08
7.03577e+08
7.03579e+08
7.03581e+08
7.03582e+08
7.06574e+08
7.06574e+08
7.06576e+08
7.06577e+08
7.06578e+08
7.06579e+08
7.09558e+08
7.09559e+08
7.09559e+08
7.0956e+08
7.0956e+08
7.09559e+08
7.12503e+08
7.12503e+08
7.12503e+08
7.12503e+08
7.12502e+08
7.12501e+08
7.1541e+08
7.1541e+08
7.1541e+08
7.15411e+08
7.1541e+08
7.1541e+08
7.18303e+08
7.18304e+08
7.18305e+08
7.18306e+08
7.18307e+08
7.18307e+08
7.21198e+08
7.21199e+08
7.212e+08
7.21202e+08
7.21203e+08
7.21203e+08
7.24092e+08
7.24093e+08
7.24094e+08
7.24096e+08
7.24097e+08
7.24098e+08
7.26979e+08
7.2698e+08
7.26981e+08
7.26983e+08
7.26984e+08
7.26984e+08
7.29851e+08
7.29852e+08
7.29853e+08
7.29854e+08
7.29855e+08
7.29855e+08
7.32696e+08
7.32697e+08
7.32698e+08
7.32699e+08
7.32698e+08
7.32698e+08
7.35509e+08
7.3551e+08
7.3551e+08
7.3551e+08
7.3551e+08
7.3551e+08
7.38296e+08
7.38297e+08
7.38298e+08
7.38299e+08
7.383e+08
7.383e+08
7.41072e+08
7.41073e+08
7.41075e+08
7.41078e+08
7.41079e+08
7.41079e+08
7.43835e+08
7.43836e+08
7.43838e+08
7.4384e+08
7.43841e+08
7.43841e+08
7.46559e+08
7.4656e+08
7.46561e+08
7.46562e+08
7.46562e+08
7.46562e+08
7.49229e+08
7.4923e+08
7.4923e+08
7.49231e+08
7.4923e+08
7.4923e+08
7.51856e+08
7.51857e+08
7.51858e+08
7.51859e+08
7.51858e+08
7.51858e+08
7.54455e+08
7.54456e+08
7.54457e+08
7.54458e+08
7.54459e+08
7.54459e+08
7.57031e+08
7.57032e+08
7.57033e+08
7.57033e+08
7.57034e+08
7.57034e+08
7.59574e+08
7.59575e+08
7.59576e+08
7.59576e+08
7.59577e+08
7.59577e+08
7.62079e+08
7.6208e+08
7.62081e+08
7.62082e+08
7.62082e+08
7.62083e+08
7.64552e+08
7.64553e+08
7.64554e+08
7.64555e+08
7.64556e+08
7.64556e+08
7.67006e+08
7.67007e+08
7.67007e+08
7.67008e+08
7.67009e+08
7.6701e+08
7.69449e+08
7.69449e+08
7.6945e+08
7.6945e+08
7.69452e+08
7.69453e+08
7.71888e+08
7.71888e+08
7.71889e+08
7.71889e+08
7.71891e+08
7.71892e+08
7.7433e+08
7.7433e+08
7.74331e+08
7.74332e+08
7.74334e+08
7.74335e+08
7.76784e+08
7.76784e+08
7.76785e+08
7.76787e+08
7.76789e+08
7.76791e+08
7.79256e+08
7.79257e+08
7.79259e+08
7.79261e+08
7.79264e+08
7.79265e+08
7.81757e+08
7.81758e+08
7.8176e+08
7.81762e+08
7.81765e+08
7.81767e+08
7.84294e+08
7.84294e+08
7.84295e+08
7.84297e+08
7.84301e+08
7.84303e+08
7.86873e+08
7.86872e+08
7.86872e+08
7.86873e+08
7.86877e+08
7.8688e+08
7.895e+08
7.89499e+08
7.89499e+08
7.89501e+08
7.89505e+08
7.89508e+08
7.92185e+08
7.92185e+08
7.92186e+08
7.92188e+08
7.92193e+08
7.92195e+08
7.94929e+08
7.94929e+08
7.94931e+08
7.94933e+08
7.94937e+08
7.94939e+08
7.97722e+08
7.97723e+08
7.97725e+08
7.97727e+08
7.97731e+08
7.97733e+08
8.0056e+08
8.00561e+08
8.00564e+08
8.00567e+08
8.00571e+08
8.00574e+08
8.03455e+08
8.03456e+08
8.03459e+08
8.03463e+08
8.03468e+08
8.0347e+08
8.06396e+08
8.06397e+08
8.064e+08
8.06403e+08
8.06407e+08
8.06409e+08
8.09346e+08
8.09347e+08
8.09348e+08
8.09349e+08
8.0935e+08
8.09351e+08
8.12242e+08
8.12242e+08
8.12242e+08
8.12241e+08
8.12239e+08
8.12238e+08
8.15039e+08
8.15038e+08
8.15037e+08
8.15036e+08
8.15033e+08
8.15032e+08
8.17761e+08
8.1776e+08
8.17758e+08
8.17757e+08
8.17754e+08
8.17753e+08
8.20443e+08
8.20443e+08
8.20443e+08
8.20442e+08
8.20441e+08
8.2044e+08
8.23135e+08
8.23137e+08
8.2314e+08
8.23142e+08
8.23144e+08
8.23145e+08
8.25912e+08
8.25913e+08
8.25917e+08
8.25922e+08
8.25929e+08
8.25934e+08
8.28829e+08
8.28829e+08
8.2883e+08
8.28834e+08
8.28842e+08
8.28847e+08
8.31815e+08
8.31814e+08
8.31812e+08
8.31813e+08
8.31812e+08
8.31813e+08
8.34687e+08
8.34687e+08
8.34685e+08
8.34683e+08
8.34677e+08
8.34673e+08
8.37416e+08
8.37416e+08
8.37416e+08
8.37415e+08
8.37412e+08
8.37409e+08
8.4014e+08
8.4014e+08
8.40141e+08
8.40142e+08
8.40144e+08
8.40145e+08
8.42975e+08
8.42974e+08
8.42974e+08
8.42976e+08
8.42981e+08
8.42984e+08
8.45952e+08
8.45951e+08
8.45951e+08
8.45952e+08
8.45955e+08
8.45957e+08
8.49013e+08
8.49013e+08
8.49013e+08
8.49013e+08
8.49013e+08
8.49013e+08
8.5209e+08
8.5209e+08
8.5209e+08
8.52089e+08
8.52088e+08
8.52087e+08
8.55182e+08
8.55182e+08
8.55181e+08
8.5518e+08
8.5518e+08
8.5518e+08
8.58325e+08
8.58323e+08
8.58322e+08
8.58322e+08
8.58322e+08
8.58323e+08
8.61532e+08
8.61531e+08
8.6153e+08
8.6153e+08
8.6153e+08
8.61531e+08
8.64787e+08
8.64787e+08
8.64786e+08
8.64785e+08
8.64785e+08
8.64785e+08
8.68057e+08
8.68057e+08
8.68056e+08
8.68055e+08
8.68054e+08
8.68054e+08
8.71319e+08
8.71318e+08
8.71317e+08
8.71316e+08
8.71315e+08
8.71315e+08
8.74561e+08
8.74561e+08
8.7456e+08
8.74559e+08
8.74558e+08
8.74557e+08
8.77782e+08
8.77782e+08
8.77781e+08
8.7778e+08
8.77779e+08
8.77778e+08
8.80985e+08
8.80984e+08
8.80983e+08
8.80982e+08
8.80982e+08
8.80981e+08
8.84172e+08
8.84172e+08
8.84171e+08
8.8417e+08
8.84169e+08
8.84169e+08
8.87349e+08
8.87348e+08
8.87348e+08
8.87347e+08
8.87347e+08
8.87347e+08
8.90521e+08
8.90521e+08
8.9052e+08
8.9052e+08
8.90519e+08
8.90519e+08
8.93693e+08
8.93693e+08
8.93693e+08
8.93692e+08
8.93692e+08
8.93692e+08
8.96868e+08
8.96867e+08
8.96867e+08
8.96867e+08
8.96867e+08
8.96867e+08
9.00042e+08
9.00041e+08
9.00041e+08
9.00041e+08
9.0004e+08
9.0004e+08
9.03212e+08
9.03212e+08
9.03211e+08
9.03211e+08
9.03211e+08
9.03211e+08
9.06379e+08
9.06378e+08
9.06378e+08
9.06378e+08
9.06378e+08
9.06378e+08
9.09544e+08
9.09543e+08
9.09543e+08
9.09543e+08
9.09543e+08
9.09543e+08
9.12708e+08
9.12708e+08
9.12707e+08
9.12707e+08
9.12707e+08
9.12707e+08
9.15871e+08
9.15871e+08
9.1587e+08
9.1587e+08
9.1587e+08
9.1587e+08
9.19032e+08
9.19032e+08
9.19031e+08
9.19031e+08
9.19031e+08
9.19031e+08
9.22191e+08
9.22191e+08
9.2219e+08
9.2219e+08
9.2219e+08
9.2219e+08
9.2535e+08
9.25349e+08
9.25349e+08
9.25349e+08
9.25349e+08
9.25349e+08
9.28509e+08
9.28509e+08
9.28508e+08
9.28508e+08
9.28508e+08
9.28508e+08
9.31668e+08
9.31667e+08
9.31667e+08
9.31667e+08
9.31667e+08
9.31667e+08
9.34823e+08
9.34823e+08
9.34822e+08
9.34822e+08
9.34822e+08
9.34822e+08
9.37973e+08
9.37973e+08
9.37972e+08
9.37972e+08
9.37972e+08
9.37972e+08
9.4112e+08
9.4112e+08
9.4112e+08
9.41119e+08
9.41119e+08
9.41119e+08
9.44269e+08
9.44268e+08
9.44268e+08
9.44268e+08
9.44268e+08
9.44268e+08
9.47419e+08
9.47419e+08
9.47419e+08
9.47419e+08
9.47419e+08
9.47419e+08
9.5057e+08
9.5057e+08
9.5057e+08
9.50569e+08
9.50569e+08
9.50569e+08
9.53718e+08
9.53717e+08
9.53717e+08
9.53717e+08
9.53717e+08
9.53717e+08
9.56862e+08
9.56862e+08
9.56862e+08
9.56861e+08
9.56861e+08
9.56861e+08
9.60005e+08
9.60005e+08