/*--------------------------------*- C++ -*----------------------------------*\
| =========                 |                                                 |
| \\      /  F ield         | OpenFOAM: The Open Source CFD Toolbox           |
|  \\    /   O peration     | Version:  2206                                  |
|   \\  /    A nd           | Website:  www.openfoam.com                      |
|    \\/     M anipulation  |                                                 |
\*---------------------------------------------------------------------------*/
FoamFile
{
    version     2.0;
    format      ascii;
    arch        "LSB;label=32;scalar=64";
    class       surfaceScalarField;
    location    "8";
    object      phi;
}
// * * * * * * * * * * * * * * * * * * * * * * * * * * * * * * * * * * * * * //

dimensions      [0 3 -1 0 0 0 0];

oriented        oriented;

internalField   nonuniform List<scalar> 
65994
(
2.83067e-12
-2.83243e-12
2.5279e-12
3.02417e-13
6.60776e-14
2.4616e-12
-2.63265e-12
2.69829e-12
-1.87017e-12
-7.62889e-13
-1.87016e-12
3.167e-12
-5.9983e-12
6.39877e-13
2.83088e-12
-5.9259e-12
9.02802e-12
-7.97278e-12
4.74578e-12
-6.30677e-12
-2.42837e-12
-8.17695e-12
-6.78139e-12
7.81028e-13
-1.55166e-11
1.15638e-11
-2.0808e-11
1.43183e-11
-1.58837e-11
-1.79466e-13
-8.27377e-12
-1.00392e-11
-1.64507e-11
-8.51639e-12
9.29859e-12
-1.89525e-11
2.20011e-11
-2.2798e-11
1.81642e-11
-1.4289e-11
-8.68807e-12
-7.45047e-12
-1.68774e-11
-2.39012e-11
5.26355e-13
8.77089e-12
-6.75911e-13
2.3202e-11
-9.97118e-12
2.74585e-11
-1.83753e-11
-2.8491e-13
-1.52118e-11
-2.00418e-11
-3.9113e-11
4.58052e-12
4.19122e-12
8.07316e-12
1.97102e-11
1.79124e-11
1.76196e-11
1.70693e-11
5.58424e-13
3.68397e-12
-6.65632e-12
-3.5429e-11
1.06004e-11
-6.40964e-12
3.06197e-11
-3.09481e-13
4.60198e-11
2.21928e-12
4.41041e-11
2.47394e-12
2.1193e-11
1.62546e-11
-1.4236e-11
1.09009e-11
-1.73096e-11
2.14838e-11
-1.08916e-11
1.2073e-11
1.16306e-11
-7.86848e-12
2.24159e-11
-4.06292e-12
1.24496e-11
-1.8299e-11
2.51733e-11
-4.24833e-11
2.0068e-11
-5.78664e-12
7.15663e-12
2.45417e-11
5.02116e-12
2.45512e-11
-6.38427e-12
2.38548e-11
-2.46832e-11
6.21764e-13
-4.31048e-11
1.75806e-11
-2.27452e-11
3.99657e-11
2.15686e-12
5.13893e-11
1.31281e-11
3.35847e-11
4.16597e-11
8.9015e-12
-3.40164e-11
-9.08849e-12
-4.69642e-11
-9.79745e-12
-6.13648e-11
1.65574e-11
-4.64251e-11
-1.81169e-12
-4.31214e-12
-4.533e-13
4.58936e-12
-1.31192e-13
-8.95651e-12
5.23049e-12
-1.51584e-11
-2.07241e-11
4.25122e-11
-3.73958e-11
1.48603e-11
-2.25246e-11
-1.53243e-11
-1.79352e-11
1.18808e-11
-2.08378e-11
2.58261e-11
-2.91042e-11
6.41827e-11
4.15545e-12
5.09237e-11
2.81193e-11
8.26497e-12
2.73344e-11
-9.67026e-12
1.04338e-11
-3.12706e-11
4.58287e-12
-2.32522e-11
7.9719e-12
7.67294e-13
5.12461e-12
3.09673e-11
-2.67145e-12
3.51311e-11
-1.23417e-11
2.86387e-12
-3.41339e-11
-1.39664e-11
-6.42151e-12
-3.2708e-11
1.95094e-11
-3.09468e-11
2.92064e-11
-1.83398e-11
2.25244e-11
-3.06815e-11
1.15397e-11
-4.5674e-11
5.39931e-12
-2.80649e-13
-1.3209e-11
3.81164e-11
-2.29389e-11
3.89355e-11
-2.30564e-11
2.26411e-11
-5.37379e-11
2.70731e-11
-7.27467e-11
4.48244e-11
-1.80322e-11
4.86777e-11
3.42646e-11
2.59941e-11
6.162e-11
-7.09541e-12
5.57314e-11
-6.08333e-11
1.2591e-11
-8.53377e-11
3.25736e-11
-3.80149e-11
5.40578e-11
1.27804e-11
5.28824e-11
6.27955e-11
2.16637e-11
8.69501e-11
-3.91696e-11
-1.13441e-11
-7.3994e-11
-9.41941e-12
-3.994e-11
4.38558e-12
-1.02491e-12
2.15983e-11
4.55824e-11
2.05794e-11
8.79689e-11
-1.85902e-11
-5.99899e-12
-6.79946e-11
-5.99364e-12
-3.99449e-11
-8.61748e-12
1.59916e-12
-5.96293e-12
4.29281e-11
2.39402e-12
7.96121e-11
-1.61962e-11
6.5022e-12
-7.44969e-11
1.08537e-11
-4.42966e-11
4.49382e-12
7.95904e-12
-6.62103e-12
5.40428e-11
-7.30795e-12
8.0299e-11
-2.35042e-11
9.49939e-12
-8.3996e-11
1.30442e-11
-4.78412e-11
9.67862e-12
1.13249e-11
9.28312e-13
6.27934e-11
-5.88204e-12
8.71095e-11
-2.93862e-11
4.96059e-12
-8.89566e-11
4.6369e-12
-4.75175e-11
1.79862e-12
1.41632e-11
-1.58282e-12
6.61749e-11
-5.24244e-12
9.07692e-11
-3.46286e-11
6.63103e-13
-8.96194e-11
1.32505e-12
-4.81793e-11
1.06819e-12
1.44203e-11
-7.63641e-14
6.73197e-11
-3.10844e-12
9.38015e-11
-3.77371e-11
-1.42437e-12
-8.81949e-11
2.87397e-12
-5.24774e-11
6.6041e-12
1.06904e-11
7.02634e-12
6.68976e-11
9.05243e-13
9.99227e-11
-3.68318e-11
-1.45398e-13
-8.80493e-11
9.077e-12
-6.16997e-11
1.55848e-11
4.18273e-12
1.5884e-11
6.65986e-11
3.25357e-12
1.12553e-10
-3.35783e-11
3.06462e-12
-9.11138e-11
1.13845e-11
-7.00195e-11
1.62741e-11
-7.06726e-13
1.2362e-11
7.05109e-11
-1.7965e-12
1.26712e-10
-3.53748e-11
-3.4493e-13
-9.07689e-11
-1.452e-11
-5.58443e-11
-1.96175e-11
4.39076e-12
-3.12776e-11
8.21709e-11
-1.65943e-11
1.12028e-10
-5.1969e-11
-2.22923e-11
-6.84765e-11
-9.26593e-11
1.45227e-11
-1.08238e-10
1.997e-11
-9.30943e-11
6.70269e-11
-2.19617e-11
4.08959e-11
-7.39307e-11
-1.08508e-11
-5.76257e-11
-1.06817e-10
1.10489e-10
-1.42214e-10
5.53676e-11
-7.57004e-11
5.13128e-13
-3.44145e-11
-3.89995e-13
-1.08345e-10
-1.42539e-11
-4.33719e-11
-1.92325e-11
1.15467e-10
3.32372e-11
2.89786e-12
1.2541e-10
-9.16598e-11
6.00754e-11
6.49447e-11
-4.82699e-11
-2.8469e-11
-1.49028e-11
-5.59411e-11
1.42939e-10
-4.51014e-11
-7.94169e-12
-3.22077e-11
-1.04553e-10
-5.58434e-11
8.85806e-11
-1.04113e-10
4.40451e-11
-5.89477e-11
2.23471e-11
1.64637e-10
-1.14453e-10
1.28859e-10
-2.44819e-10
2.58121e-11
-1.44288e-10
-1.19499e-11
-2.48401e-10
5.94749e-11
-1.18422e-10
1.89268e-10
3.48442e-11
1.28317e-10
1.8981e-10
-1.95424e-11
1.73672e-10
3.24436e-11
-6.39357e-11
-2.15958e-10
-1.00622e-11
-1.0836e-10
4.03236e-11
-1.55415e-11
-8.05643e-12
2.3819e-10
2.78111e-11
1.37804e-10
4.94222e-11
-8.55466e-11
-1.66536e-10
1.81417e-11
-1.26502e-10
4.92108e-11
-4.66105e-11
8.96536e-11
1.97747e-10
2.02985e-10
2.44729e-11
4.84258e-11
6.90124e-11
-1.1811e-10
2.13242e-10
-3.39743e-10
3.18707e-10
-1.52076e-10
2.572e-10
2.59255e-10
4.0068e-11
2.41605e-10
-2.92116e-11
1.38292e-10
-1.47321e-10
3.93866e-11
-3.7913e-10
-1.32697e-10
2.00071e-11
-5.12374e-11
1.77796e-10
-1.21896e-10
3.12264e-10
3.53855e-12
1.28571e-11
-1.43783e-10
-1.61328e-10
-2.17802e-10
-4.58418e-10
3.17097e-10
-4.13551e-10
1.32929e-10
-3.31103e-10
2.29816e-10
-1.92618e-10
-1.25628e-10
-3.364e-10
-9.84207e-11
-1.19381e-10
-3.1741e-11
2.50417e-10
-3.67637e-12
1.04864e-10
-1.15889e-10
3.42028e-10
-1.19643e-10
-1.21874e-10
-4.56044e-10
1.07646e-10
-2.27027e-10
4.84549e-10
-1.26487e-10
4.31359e-10
1.58054e-10
2.73437e-10
4.9995e-10
1.70925e-10
-1.93621e-11
-2.85118e-10
5.58146e-11
-2.82842e-10
1.756e-10
-2.46272e-10
-6.34707e-11
3.97125e-10
-1.15035e-10
5.51514e-10
-1.98595e-10
6.41984e-11
-4.83714e-10
-1.77857e-10
-1.04985e-10
-1.99879e-10
-2.24251e-10
9.85359e-11
9.87105e-11
2.64841e-10
3.85209e-10
-1.37273e-10
4.66312e-10
-6.20987e-10
1.14247e-11
-1.1641e-10
3.67328e-11
-2.49559e-10
4.08489e-10
-2.73046e-10
6.68873e-10
1.24825e-10
5.87696e-10
5.47489e-10
-3.32912e-11
-2.12196e-12
-1.14288e-10
-1.20565e-11
-2.39625e-10
-9.67157e-11
-1.88387e-10
1.31532e-10
-1.03423e-10
3.43948e-10
3.35073e-10
3.10657e-10
1.14196e-10
-2.28483e-10
7.31103e-11
-1.98539e-10
-1.81584e-10
6.63079e-11
-3.74299e-10
8.92927e-11
-2.09016e-10
1.6979e-10
1.01641e-10
7.86066e-11
-3.0709e-10
6.5289e-11
-1.85222e-10
-6.26124e-11
1.94209e-10
-2.71203e-10
2.97883e-10
-1.98184e-10
9.67715e-11
-9.65438e-11
-1.16515e-10
-1.90575e-10
-2.71607e-10
-3.01296e-11
-2.42802e-10
1.65404e-10
-1.61381e-10
2.16463e-10
-6.04897e-11
-4.11996e-12
-1.57033e-10
-5.24081e-11
-1.38166e-10
-1.20417e-11
-7.0496e-11
1.01443e-10
5.1919e-11
1.53612e-10
1.64294e-10
7.9057e-11
7.04356e-11
-7.79765e-11
4.03911e-11
-1.78557e-10
8.9051e-11
-1.19156e-10
1.00512e-10
4.04583e-11
6.40184e-11
2.00787e-10
9.6977e-13
1.33484e-10
-7.70067e-11
-3.19653e-12
-1.75361e-10
-2.07669e-11
-1.01585e-10
-1.94949e-11
3.91863e-11
1.09388e-12
1.80199e-10
-1.33828e-12
1.35916e-10
-7.8345e-11
-1.40378e-11
-1.61323e-10
-5.39652e-11
-6.16577e-11
-7.34711e-11
5.86923e-11
-5.42998e-11
1.61027e-10
-1.68524e-11
9.84692e-11
-9.51974e-11
-5.86658e-12
-1.55456e-10
-2.91922e-11
-3.8332e-11
-4.79286e-11
7.74289e-11
-3.88244e-11
1.51923e-10
-1.87924e-11
7.84373e-11
-1.1399e-10
4.9487e-12
-1.60405e-10
2.56038e-12
-3.59435e-11
-8.55868e-12
8.8548e-11
-1.00913e-11
1.53456e-10
-1.44938e-11
8.28399e-11
-1.28484e-10
1.31282e-11
-1.73533e-10
2.48106e-11
-4.76258e-11
2.01777e-11
9.3181e-11
1.17527e-11
1.61881e-10
-9.76566e-12
1.04358e-10
-1.38249e-10
1.37266e-11
-1.8726e-10
1.7863e-11
-5.17622e-11
4.45755e-12
1.06586e-10
-1.98553e-12
1.68324e-10
-1.19864e-11
1.14359e-10
-1.50236e-10
2.63927e-11
-2.13652e-10
3.09607e-11
-5.63299e-11
7.25034e-12
1.30297e-10
-1.34547e-11
1.89029e-10
-2.35651e-11
1.2447e-10
-1.73801e-10
2.88311e-11
-2.42483e-10
6.11527e-11
-8.86514e-11
6.53189e-11
1.26131e-10
3.72637e-11
2.17085e-10
-1.44275e-12
1.63176e-10
-1.75243e-10
-1.96574e-11
-2.22826e-10
1.27799e-11
-1.21089e-10
6.28852e-11
7.60258e-11
7.88699e-11
2.011e-10
4.52726e-11
1.96774e-10
-1.29971e-10
-3.08497e-11
-1.91976e-10
-2.32919e-11
-1.28646e-10
1.70999e-11
3.56339e-11
4.89727e-11
1.69227e-10
4.48156e-11
2.00931e-10
-8.51552e-11
-8.77042e-12
-1.83206e-10
-2.01117e-11
-1.17305e-10
-1.7118e-11
3.26402e-11
-1.07264e-11
1.62836e-10
7.42494e-12
1.8278e-10
-7.77303e-11
-4.67061e-12
-1.78535e-10
-3.17602e-11
-9.02156e-11
-5.39768e-11
5.48568e-11
-4.76506e-11
1.56509e-10
-1.94934e-11
1.54622e-10
-9.72237e-11
3.13359e-12
-1.81669e-10
-2.78138e-11
-5.92683e-11
-6.63594e-11
9.34024e-11
-6.29264e-11
1.53076e-10
-3.43744e-11
1.2607e-10
-1.31598e-10
1.54787e-11
-1.97147e-10
3.35453e-12
-4.71441e-11
-2.77806e-11
1.24538e-10
-4.04956e-11
1.65791e-10
-3.39635e-11
1.19538e-10
-1.65562e-10
2.46892e-11
-2.21836e-10
2.76064e-11
-5.00612e-11
1.23899e-12
1.50905e-10
-2.27909e-11
1.89821e-10
-3.28961e-11
1.29644e-10
-1.98458e-10
3.0611e-11
-2.52447e-10
4.23875e-11
-6.18377e-11
2.38133e-11
1.69479e-10
-6.7244e-12
2.20359e-10
-3.03022e-11
1.53221e-10
-2.2876e-10
2.95183e-11
-2.81965e-10
4.65394e-11
-7.88588e-11
3.83229e-11
1.77696e-10
9.57721e-12
2.49105e-10
-1.86453e-11
1.81444e-10
-2.47405e-10
1.95318e-11
-3.01497e-10
2.91824e-11
-8.85093e-11
2.68778e-11
1.8e-10
9.9419e-12
2.66041e-10
-1.18891e-11
2.03275e-10
-2.59294e-10
1.49854e-11
-3.16483e-10
2.54186e-11
-9.89424e-11
2.94656e-11
1.75954e-10
1.8065e-11
2.77442e-10
-3.93775e-12
2.25278e-10
-2.63232e-10
1.55759e-11
-3.32059e-10
2.17325e-11
-1.05099e-10
1.98579e-11
1.77828e-10
7.94167e-12
2.89358e-10
-9.8725e-12
2.43092e-10
-2.73105e-10
2.06087e-11
-3.52667e-10
3.29917e-11
-1.17482e-10
3.21118e-11
1.78708e-10
1.60187e-11
3.05451e-10
-1.13268e-11
2.70437e-10
-2.84431e-10
2.36175e-11
-3.76285e-10
4.10836e-11
-1.34948e-10
4.10675e-11
1.78724e-10
2.40459e-11
3.22472e-10
-1.05263e-11
3.0501e-10
-2.94958e-10
2.98059e-11
-4.06091e-10
5.43919e-11
-1.59534e-10
5.65504e-11
1.76566e-10
4.06215e-11
3.38401e-10
-5.16993e-12
3.50801e-10
-3.00128e-10
2.70184e-11
-4.33109e-10
5.06843e-11
-1.832e-10
6.65589e-11
1.60691e-10
5.80901e-11
3.4687e-10
2.1116e-11
3.87775e-10
-2.79012e-10
2.15494e-11
-4.54658e-10
4.42837e-11
-2.05934e-10
7.52017e-11
1.29773e-10
7.07801e-11
3.51292e-10
5.20216e-11
4.06534e-10
-2.2699e-10
2.58908e-11
-4.80549e-10
5.32957e-11
-2.33339e-10
8.13067e-11
1.01762e-10
8.2848e-11
3.4975e-10
6.35346e-11
4.25847e-10
-1.63455e-10
5.34884e-11
-5.34038e-10
9.17228e-11
-2.71574e-10
1.08311e-10
8.51742e-11
1.02697e-10
3.55364e-10
5.16192e-11
4.76925e-10
-1.11836e-10
6.1637e-11
-5.95675e-10
9.98605e-11
-3.09797e-10
1.09977e-10
7.50576e-11
9.87163e-11
3.66625e-10
3.50277e-11
5.40614e-10
-7.68085e-11
-4.2402e-12
-5.91435e-10
-2.0024e-11
-2.94014e-10
-4.66667e-11
1.017e-10
-4.20208e-11
3.61979e-10
-1.03303e-11
5.08923e-10
-8.71388e-11
-5.52699e-11
-5.36165e-10
-1.16342e-10
-2.32941e-10
-1.79985e-10
1.65343e-10
-1.65313e-10
3.47307e-10
-7.06564e-11
4.14266e-10
-1.57795e-10
-2.62834e-11
-5.09881e-10
-5.95751e-11
-1.9965e-10
-9.82029e-11
2.03971e-10
-1.16818e-10
3.65921e-10
-6.70392e-11
3.64488e-10
-2.24834e-10
2.2691e-11
-5.32572e-10
3.65533e-11
-2.13512e-10
6.5684e-11
1.7484e-10
3.0954e-11
4.00652e-10
1.96104e-11
3.75831e-10
-2.05224e-10
5.67636e-11
-5.89336e-10
1.17102e-10
-2.7385e-10
2.31738e-10
6.02038e-11
2.27222e-10
4.05168e-10
1.16123e-10
4.8693e-10
-8.91006e-11
6.0213e-11
-6.49549e-10
1.60967e-10
-3.74605e-10
3.22409e-10
-1.01238e-10
3.85843e-10
3.41734e-10
1.67808e-10
7.04965e-10
7.87075e-11
-3.73833e-11
-6.12165e-10
-1.33459e-11
-3.98642e-10
3.31849e-11
-1.47768e-10
1.49131e-10
2.25788e-10
9.35574e-11
7.60539e-10
1.72265e-10
-1.08286e-10
-5.03879e-10
-2.51838e-10
-2.55089e-10
-4.40637e-10
4.10304e-11
-3.79234e-10
1.64384e-10
-1.55727e-10
5.37031e-10
1.65382e-11
-2.86119e-11
-4.75267e-10
-2.61945e-10
-2.17559e-11
-5.87323e-10
3.66408e-10
-6.26117e-10
2.03178e-10
-3.61898e-10
2.72812e-10
-3.45359e-10
-7.21085e-11
-4.03159e-10
-3.14854e-10
2.20989e-10
-4.96994e-10
5.48548e-10
-5.43004e-10
2.49189e-10
-2.81641e-10
1.1449e-11
-6.27001e-10
1.8655e-10
-5.89709e-10
2.45391e-10
1.62148e-10
5.53575e-10
2.40365e-10
2.83771e-10
5.18992e-10
8.24295e-11
2.1279e-10
-5.44571e-10
-3.75037e-11
-5.52205e-10
3.90377e-10
-2.65732e-10
1.086e-09
-4.55254e-10
1.50109e-09
1.03899e-10
8.60517e-10
8.53363e-10
3.15946e-10
-3.12254e-10
-2.39951e-10
-3.3646e-10
-2.41526e-10
-1.99811e-10
-5.91903e-10
3.90527e-10
-4.86439e-10
4.49386e-10
7.94504e-10
7.65332e-10
2.27308e-10
-4.67259e-10
3.89393e-10
-4.03611e-10
-1.24345e-10
-7.81652e-11
-4.50853e-10
-1.59932e-10
-1.43579e-10
4.87231e-10
6.21752e-10
2.14119e-10
-6.81378e-10
1.91783e-10
-3.81275e-10
-1.6974e-10
2.83358e-10
-5.4635e-10
2.16678e-10
-3.87502e-10
3.28384e-10
2.3425e-10
-2.92819e-11
-6.52097e-10
-4.14846e-10
4.28925e-12
-6.78053e-10
5.46565e-10
-6.9938e-10
2.38005e-10
-4.27819e-10
5.68222e-11
-1.93569e-10
-3.09925e-11
-6.21104e-10
4.25039e-11
-6.92072e-11
1.54643e-10
4.34426e-10
1.2162e-11
3.80486e-10
-1.2211e-10
1.91094e-10
-3.15679e-10
6.73682e-11
-6.88472e-10
2.18451e-10
-2.2029e-10
4.30221e-10
2.22657e-10
3.25708e-10
4.84999e-10
9.36099e-11
4.23193e-10
-2.22069e-10
7.6491e-11
-7.64963e-10
1.40259e-10
-2.84059e-10
1.83425e-10
1.79491e-10
1.67064e-10
5.01359e-10
5.78554e-11
5.32402e-10
-1.64214e-10
1.78443e-11
-7.82808e-10
5.32274e-11
-3.19442e-10
3.52517e-11
1.97467e-10
2.89483e-11
5.07663e-10
1.07787e-11
5.50571e-10
-1.53435e-10
2.6697e-12
-7.85477e-10
2.10098e-12
-3.18873e-10
-2.56252e-11
2.25193e-10
-2.6758e-11
5.08796e-10
-1.01447e-11
5.33958e-10
-1.6358e-10
1.79444e-11
-8.03422e-10
1.5732e-11
-3.1666e-10
6.78681e-13
2.40246e-10
-1.13717e-11
5.20846e-10
-5.21945e-12
5.27806e-10
-1.68799e-10
4.63081e-11
-8.4973e-10
8.44447e-11
-3.54797e-10
9.14284e-11
2.33263e-10
5.20828e-11
5.60192e-10
9.69377e-12
5.70195e-10
-1.59105e-10
3.17356e-11
-8.81465e-10
1.23648e-10
-4.46709e-10
2.32155e-10
1.24756e-10
2.29925e-10
5.62422e-10
8.36103e-11
7.16509e-10
-7.54951e-11
-4.70825e-11
-8.34383e-10
2.85773e-11
-5.22369e-10
1.80523e-10
-2.71896e-11
2.84294e-10
4.5865e-10
1.41637e-10
8.59166e-10
6.61422e-11
-5.8947e-11
-7.75436e-10
-5.36805e-11
-5.27636e-10
-5.996e-11
-2.09101e-11
9.93726e-12
3.88753e-10
3.92495e-11
8.29854e-10
1.05392e-10
-3.75768e-11
-7.37859e-10
-1.15832e-10
-4.49381e-10
-2.40987e-10
1.04245e-10
-2.65707e-10
4.13473e-10
-1.11801e-10
6.75948e-10
-6.40892e-12
-5.14173e-11
-6.86441e-10
-1.90347e-10
-3.10451e-10
-2.99739e-10
2.13636e-10
-3.10466e-10
4.24201e-10
-1.45584e-10
5.11066e-10
-1.51993e-10
-1.30043e-11
-6.73437e-10
-1.68836e-10
-1.54619e-10
-2.89088e-10
3.33889e-10
-2.94702e-10
4.29814e-10
-1.2476e-10
3.41124e-10
-2.76752e-10
1.19658e-10
-7.93096e-10
1.69921e-10
-2.04882e-10
2.95047e-10
2.08762e-10
2.27549e-10
4.97312e-10
5.73703e-11
5.11303e-10
-2.19382e-10
-1.40021e-10
-6.53074e-10
-4.00571e-12
-3.40897e-10
3.33285e-10
-1.28529e-10
5.12359e-10
3.18238e-10
2.78293e-10
7.45369e-10
5.89113e-11
-2.43595e-10
-4.09479e-10
-2.47585e-10
-3.36907e-10
-2.79919e-10
-9.6195e-11
-1.18236e-10
1.56555e-10
-5.86475e-12
6.32998e-10
5.30465e-11
1.11892e-10
-5.21371e-10
1.62539e-10
-3.87555e-10
-1.58697e-10
2.25042e-10
-4.17559e-10
4.15417e-10
-2.8812e-10
5.03559e-10
-2.35074e-10
3.07584e-11
-5.5213e-10
-1.21996e-10
-2.348e-10
-1.10334e-10
2.13379e-10
-1.71856e-10
4.76939e-10
-1.44843e-10
4.76545e-10
-3.79917e-10
-1.99902e-10
-3.52227e-10
-6.48976e-10
2.14274e-10
-8.60481e-10
4.24884e-10
-6.81962e-10
2.98421e-10
-1.55923e-10
-4.94937e-11
-5.3584e-10
-6.52869e-10
3.00642e-10
-1.34004e-09
9.01448e-10
-1.46838e-09
5.5322e-10
-9.03311e-10
-2.66648e-10
-1.86077e-10
-7.66727e-10
-7.21917e-10
-7.87223e-11
3.79364e-10
-2.81872e-10
1.1046e-09
-3.42683e-10
6.14031e-10
-5.50638e-11
-5.54267e-10
1.16231e-10
-9.38022e-10
-6.05686e-10
6.2882e-10
-2.49456e-10
1.57497e-09
1.58445e-10
1.69518e-09
4.93823e-10
9.46025e-10
1.94888e-10
3.30277e-10
-3.22275e-10
-2.75409e-10
1.87224e-10
-4.36681e-10
7.33098e-10
-3.87428e-10
1.1338e-09
9.31244e-11
1.03086e-09
2.97827e-10
4.39371e-10
2.69212e-10
1.63962e-10
-5.75943e-10
1.39262e-10
-1.10177e-09
1.38396e-10
-8.98994e-10
-1.09649e-10
-2.16389e-10
-3.84777e-10
2.4143e-10
-1.88607e-10
4.05392e-10
4.1587e-11
9.76755e-11
-3.57171e-10
5.37153e-10
-3.76687e-10
-9.01333e-11
-5.2551e-10
-2.35954e-10
-4.96038e-10
-2.18079e-10
-9.06454e-11
3.50776e-10
-2.531e-10
7.72346e-10
1.15583e-10
5.88524e-10
9.36888e-11
2.63293e-10
8.92762e-11
-1.07472e-10
1.52685e-10
-1.98117e-10
2.20624e-11
-2.75163e-10
3.25205e-10
-1.87559e-10
3.29917e-10
8.89759e-11
7.60562e-11
3.43137e-10
4.55989e-11
1.83143e-10
-1.52518e-10
7.63434e-11
-3.51506e-10
-1.62562e-10
5.13464e-11
-1.46981e-10
7.33949e-11
-2.33326e-10
4.29482e-10
-2.34977e-10
1.84793e-10
-3.87495e-10
4.01239e-10
-7.52745e-10
4.7013e-10
-1.75441e-11
3.50442e-10
1.93082e-10
1.00731e-10
6.79194e-10
-6.28904e-11
3.48414e-10
-4.50386e-10
4.2691e-10
-1.17966e-09
8.03304e-10
-3.93937e-10
8.35968e-10
1.60418e-10
6.35245e-10
8.79917e-10
2.20028e-10
7.63632e-10
-2.30358e-10
1.88092e-10
-1.36775e-09
4.499e-10
-6.55745e-10
5.10646e-10
9.96717e-11
5.05269e-10
8.85295e-10
1.38727e-10
1.13017e-09
-9.16312e-11
1.4352e-10
-1.51127e-09
4.13636e-11
-5.53589e-10
-2.89645e-10
4.30681e-10
9.98921e-11
4.95757e-10
8.87297e-11
1.14134e-09
-2.90148e-12
-5.4609e-10
-9.65178e-10
-1.10739e-09
7.70933e-12
-1.05008e-09
3.73371e-10
-6.25425e-10
7.11038e-11
-2.68678e-10
7.84589e-10
-2.7158e-10
-4.71795e-10
-4.93383e-10
-8.28924e-10
3.64838e-10
-9.29236e-10
4.73684e-10
-9.5296e-10
9.48281e-11
-4.85946e-10
3.17574e-10
-7.57525e-10
5.03522e-11
-5.43736e-10
2.67553e-10
1.47638e-10
-2.26335e-11
7.6387e-10
-4.01818e-10
4.74013e-10
-2.99736e-10
2.15492e-10
-1.05726e-09
-2.01901e-10
-3.41835e-10
-1.27252e-10
7.29894e-11
8.83682e-10
-2.47064e-10
9.10971e-10
4.46723e-10
4.37511e-10
6.88952e-10
-6.1975e-10
-3.85987e-11
-3.03236e-10
1.46956e-10
-1.12565e-10
7.53733e-10
-8.53842e-10
1.06251e-09
1.37945e-10
7.25031e-10
1.02643e-09
1.05282e-10
4.22737e-10
-7.25973e-10
8.91203e-10
-5.81031e-10
3.00542e-10
-2.63181e-10
3.10915e-10
1.27572e-10
3.36749e-10
1.0006e-09
4.42031e-10
-3.51469e-12
-7.22458e-10
-2.93908e-10
-2.90638e-10
-6.46043e-10
8.89539e-11
-8.59025e-10
3.40555e-10
-5.93481e-10
7.35053e-10
-1.5145e-10
4.65505e-10
-1.18796e-09
2.93865e-10
-1.18998e-10
-4.13777e-12
3.86957e-10
-1.0081e-09
1.34451e-09
-9.5243e-10
6.79387e-10
-1.10388e-09
2.84383e-10
-1.47235e-09
9.35875e-10
-7.70489e-10
1.04341e-09
2.79426e-10
7.63332e-10
1.62459e-09
6.26946e-10
8.15772e-10
-4.76933e-10
-2.20086e-10
-1.25226e-09
-1.16457e-10
-8.74119e-10
5.61721e-10
-3.98751e-10
8.96901e-10
1.28941e-09
5.90875e-10
1.1218e-09
1.13942e-10
6.92381e-11
-1.3215e-09
-3.82937e-10
-4.21945e-10
-5.1466e-10
-2.67028e-10
-5.94017e-10
1.36876e-09
-2.40926e-10
7.68707e-10
-1.26984e-10
4.95417e-11
-1.37104e-09
-3.07306e-10
-6.50964e-11
-7.30579e-10
1.56245e-10
-6.4555e-10
1.28373e-09
-2.67412e-10
3.9057e-10
-3.94395e-10
-7.29127e-11
-1.29813e-09
-8.25098e-12
-1.29758e-10
-1.25617e-10
2.73611e-10
1.46755e-10
1.01136e-09
1.63857e-11
5.20939e-10
-3.7801e-10
-1.15346e-10
-1.18278e-09
1.9954e-10
-4.44644e-10
1.18851e-10
3.54301e-10
1.38524e-10
9.91691e-10
-6.27067e-11
7.2217e-10
-4.40716e-10
-2.28636e-10
-9.54144e-10
-4.89778e-11
-6.24303e-10
4.53664e-11
2.59957e-10
1.22973e-10
9.14084e-10
1.23615e-10
7.21528e-10
-3.17101e-10
-2.19174e-10
-7.3497e-10
-2.84971e-10
-5.58506e-10
-6.02787e-11
3.52647e-11
1.4796e-10
7.05845e-10
2.26118e-10
6.4337e-10
-9.09832e-11
-1.31234e-10
-6.03736e-10
-2.34475e-10
-4.55265e-10
-1.59085e-10
-4.01247e-11
-9.85989e-11
6.45359e-10
1.721e-11
5.27561e-10
-7.37732e-11
-1.21073e-10
-4.82663e-10
-1.87286e-10
-3.89051e-10
-1.77497e-10
-4.99148e-11
-6.09081e-11
5.2877e-10
1.36674e-11
4.52986e-10
-6.01058e-11
-9.68397e-11
-3.85824e-10
-1.60374e-10
-3.25518e-10
-1.71637e-10
-3.8652e-11
-6.29347e-11
4.20068e-10
7.68467e-12
3.82366e-10
-5.24212e-11
-6.20754e-11
-3.23748e-10
-1.46072e-10
-2.41521e-10
-1.87324e-10
2.60045e-12
-1.27073e-10
3.59817e-10
-4.21126e-11
2.97406e-10
-9.45338e-11
-2.94277e-11
-2.94321e-10
-1.28893e-10
-1.42056e-10
-2.07392e-10
8.10988e-11
-1.68146e-10
3.20571e-10
-8.59441e-11
2.15204e-10
-1.80478e-10
-2.36961e-12
-2.91951e-10
-1.17718e-10
-2.67079e-11
-2.17588e-10
1.80969e-10
-1.75416e-10
2.78399e-10
-1.08133e-10
1.47922e-10
-2.88611e-10
2.54122e-11
-3.17363e-10
-1.08993e-10
1.07697e-10
-2.60846e-10
3.32822e-10
-2.14667e-10
2.32219e-10
-1.29865e-10
6.31201e-11
-4.18476e-10
1.56548e-10
-4.73911e-10
1.19858e-10
1.44387e-10
-5.83022e-11
5.10982e-10
-1.81177e-10
3.55094e-10
-1.96907e-10
7.88507e-11
-6.15383e-10
1.76372e-10
-6.50283e-10
4.00977e-10
-8.02176e-11
4.70103e-10
4.41856e-10
2.89593e-10
5.35604e-10
1.19281e-11
3.56516e-10
-6.03455e-10
-1.14359e-10
-5.35924e-10
6.3345e-11
-2.57921e-10
3.34668e-10
1.70534e-10
3.88763e-10
4.8151e-10
2.36944e-10
5.08334e-10
-3.66511e-10
-1.05983e-10
-4.29942e-10
-7.6995e-11
-2.86909e-10
5.95042e-12
8.75883e-11
1.3536e-10
3.521e-10
1.68688e-10
4.75006e-10
-1.97823e-10
3.87911e-11
-4.68732e-10
6.94369e-11
-3.17555e-10
3.52303e-11
1.21795e-10
-3.09693e-11
4.183e-10
5.6691e-12
4.38368e-10
-1.92154e-10
-3.48358e-13
-4.68384e-10
-4.54548e-11
-2.72449e-10
-5.1127e-11
1.27468e-10
-7.69377e-11
4.44111e-10
-1.77706e-11
3.79201e-10
-2.09924e-10
-3.57055e-11
-4.32678e-10
-8.86061e-11
-2.19547e-10
-9.05391e-11
1.29401e-10
-6.83962e-11
4.21968e-10
-5.01237e-12
3.15817e-10
-2.14937e-10
-3.64844e-11
-3.96193e-10
-5.19699e-11
-2.04062e-10
-4.29957e-11
1.20427e-10
-1.43986e-11
3.93371e-10
1.18196e-11
2.89599e-10
-2.03117e-10
-2.78184e-11
-3.68374e-10
-2.49172e-11
-2.06962e-10
-4.50023e-12
1.00011e-10
1.81276e-11
3.70744e-10
2.26215e-11
2.85106e-10
-1.80496e-10
-2.45808e-11
-3.43793e-10
-2.69486e-11
-2.04594e-10
-8.70337e-12
8.17657e-11
1.43956e-11
3.47645e-10
2.21619e-11
2.7734e-10
-1.58334e-10
-1.86702e-11
-3.25123e-10
-4.27225e-11
-1.80541e-10
-4.12988e-11
8.03423e-11
-2.35099e-11
3.29857e-10
-2.07264e-12
2.55903e-10
-1.60406e-10
-5.12426e-11
-2.7388e-10
-1.44373e-10
-8.74109e-11
-1.56582e-10
9.25514e-11
-1.12944e-10
2.86219e-10
-3.74547e-11
1.80413e-10
-1.97861e-10
-1.01172e-10
-1.72708e-10
-3.43598e-10
1.55015e-10
-3.80105e-10
1.29059e-10
-3.10275e-10
2.16389e-10
-1.22408e-10
-7.45358e-12
-3.20269e-10
-2.03566e-10
3.08582e-11
-7.646e-10
7.16049e-10
-7.11238e-10
7.56978e-11
-4.08446e-10
-8.64022e-11
-1.6224e-10
-2.53659e-10
-4.82509e-10
9.17763e-10
-8.86904e-10
6.09856e-10
1.02396e-09
1.34031e-10
5.51523e-10
-5.31826e-10
5.79455e-10
-7.28356e-10
-5.71285e-11
-1.21087e-09
9.66449e-10
-1.85335e-09
1.64891e-09
3.41499e-10
1.28158e-09
9.18846e-10
5.46213e-10
1.31483e-09
-2.70914e-10
7.59998e-10
-1.48178e-09
-5.8931e-10
-1.26404e-09
9.56813e-12
-2.57378e-10
4.17181e-10
5.11233e-10
8.39762e-10
8.92246e-10
7.23577e-10
8.76184e-10
-7.58202e-10
-7.63642e-10
-5.00399e-10
-1.00538e-09
-1.56377e-11
-6.29376e-10
1.35228e-10
1.74869e-10
8.80008e-11
6.53307e-10
3.97747e-10
-1.04895e-10
-2.41391e-10
-2.59008e-10
-1.96043e-10
-6.09854e-11
2.08411e-10
-2.69226e-10
5.38777e-10
-2.42364e-10
5.59447e-10
3.77077e-10
4.54551e-10
-4.79929e-10
2.20921e-10
-3.42488e-10
-1.98426e-10
6.09727e-10
-1.22144e-09
1.38536e-09
-1.018e-09
1.02381e-09
7.38622e-10
1.47837e-09
-9.57492e-10
1.17841e-09
-1.42048e-09
2.6456e-10
-7.77133e-10
-1.86479e-09
-9.29762e-11
-1.70215e-09
4.93832e-10
1.51814e-10
1.9722e-09
2.07277e-10
9.71136e-10
-4.85448e-10
9.57285e-10
-6.13279e-10
-1.73695e-09
-6.81176e-10
-1.63426e-09
5.22204e-11
-5.81582e-10
2.02442e-09
1.98984e-09
-1.01871e-09
3.83197e-09
-8.8484e-10
3.16318e-09
-1.06817e-09
1.27258e-09
2.56353e-10
2.98025e-10
3.9297e-10
2.32244e-09
2.23719e-10
-1.24243e-09
9.22851e-10
-1.58397e-09
7.67437e-10
-9.12754e-10
3.4207e-10
6.8172e-10
-2.83599e-10
1.01864e-09
2.03884e-09
-8.2464e-10
-4.17787e-10
-2.42943e-09
2.08187e-11
-2.97525e-09
-3.6693e-10
-2.46838e-09
1.74844e-10
-1.75342e-09
3.03679e-10
2.85425e-10
1.94359e-10
-6.12147e-10
3.25389e-10
-1.10211e-10
-5.2185e-10
4.80309e-10
-1.12448e-09
7.77474e-10
-9.45109e-10
1.24308e-10
-6.59684e-10
-1.8614e-10
-4.26008e-10
-9.776e-11
-1.98591e-10
-2.05728e-10
5.88277e-10
-2.54826e-10
8.26571e-10
-5.38769e-11
-7.66409e-11
-7.13561e-10
-1.16555e-09
7.39547e-10
-1.56586e-09
2.01712e-10
-1.64087e-09
6.63292e-10
-1.50664e-09
6.92342e-10
-9.8011e-10
-6.03176e-10
-1.69367e-09
-4.33213e-10
1.17276e-09
-3.40929e-10
1.09428e-10
1.93677e-11
3.02994e-10
5.58333e-10
1.53377e-10
1.74925e-10
-2.19768e-10
-1.51875e-09
1.10632e-11
1.1617e-09
-2.48893e-10
3.69384e-10
-2.55616e-11
7.9662e-11
4.41777e-10
-3.13961e-10
9.49521e-10
-7.27513e-10
-5.69225e-10
5.53352e-11
1.10636e-09
-1.00035e-09
1.42507e-09
-7.57544e-10
-1.63146e-10
-6.55511e-10
-4.15995e-10
-5.04252e-11
-1.3326e-09
-6.19651e-10
6.63021e-10
4.43339e-10
1.18063e-09
9.07459e-10
1.55118e-09
-5.33696e-10
1.72404e-09
-5.8885e-10
5.57495e-10
-1.66054e-10
-6.21562e-11
9.26441e-10
-4.83101e-10
2.33023e-09
-4.96331e-10
1.74759e-09
4.8944e-11
1.05361e-09
1.05131e-10
4.13311e-11
8.46225e-10
-2.08251e-11
4.00939e-10
-8.84041e-10
9.93682e-10
-1.08907e-09
1.00266e-09
3.99618e-11
4.37416e-10
6.70379e-10
-4.1372e-12
1.28778e-09
-2.49623e-11
-1.67429e-10
-7.16612e-10
-1.11003e-09
-1.46468e-10
-9.50861e-10
-1.19212e-10
-6.41745e-10
3.61264e-10
-1.44574e-10
7.90607e-10
-1.69536e-10
-6.19452e-10
-9.71604e-11
-1.10843e-09
3.42512e-10
-1.15733e-09
-7.0311e-11
-8.90639e-10
9.45687e-11
-2.20928e-10
1.20895e-10
-3.90464e-10
-4.80488e-10
3.83328e-10
-2.32673e-10
9.4698e-11
-8.97437e-11
-2.1324e-10
1.11549e-10
-1.06724e-10
2.08165e-10
2.42802e-11
-1.82299e-10
3.79961e-10
3.36649e-12
7.89019e-13
4.7387e-10
-4.11424e-10
1.98972e-10
-4.09173e-10
-1.08975e-10
-7.75233e-10
3.90341e-10
-9.57532e-10
-1.32993e-09
1.3333e-09
-2.02068e-09
1.16463e-09
-1.85569e-09
3.39761e-11
-1.66916e-09
-2.95497e-10
-5.43605e-10
-7.35218e-10
-1.50114e-09
-4.08132e-10
1.74143e-09
-2.85409e-10
1.0419e-09
7.63768e-10
-1.0152e-09
1.01094e-09
-5.42674e-10
9.45427e-10
-6.697e-10
-5.55711e-10
1.25746e-09
4.83972e-10
2.31036e-09
-1.09979e-11
1.37014e-09
-7.49777e-11
5.31854e-10
2.9561e-10
-2.07324e-10
6.94788e-11
-7.63035e-10
4.44596e-10
3.9377e-11
2.48246e-10
1.85353e-10
-3.31596e-10
5.04864e-10
-2.56371e-10
2.20386e-10
1.50559e-11
-2.01948e-10
-7.47979e-10
-2.75356e-10
3.14733e-10
-7.47048e-10
6.57045e-10
-5.80473e-10
3.3829e-10
-1.86739e-10
-1.73347e-10
1.81976e-10
-5.70663e-10
-5.66002e-10
3.09904e-10
4.82908e-12
2.5645e-10
7.10499e-10
-2.15636e-10
8.10376e-10
-3.26175e-10
-6.28088e-11
-3.87915e-10
-5.08923e-10
-9.53918e-10
2.46972e-10
-2.42142e-10
4.21823e-10
5.35648e-10
5.38905e-10
6.93294e-10
1.71048e-10
3.05048e-10
-1.06536e-10
-2.31338e-10
-1.06045e-09
9.18626e-11
-3.34005e-10
-5.59098e-11
6.8342e-10
-5.52857e-11
6.9267e-10
-3.35263e-10
5.85026e-10
-3.29307e-10
-2.37295e-10
-1.38976e-09
-5.781e-11
-2.76194e-10
-3.68049e-10
9.93661e-10
-4.90587e-10
8.15209e-10
-5.1982e-10
6.14259e-10
-3.02491e-10
-4.54622e-10
-1.69225e-09
-2.23162e-10
-5.30325e-11
-3.42774e-10
1.11327e-09
-2.21252e-10
6.93688e-10
1.88729e-10
2.04278e-10
2.94505e-10
-5.60397e-10
-1.39775e-09
-2.41418e-10
1.88387e-10
-3.0667e-10
1.17853e-09
-1.12512e-10
4.99531e-10
1.69347e-10
-7.75794e-11
2.5598e-10
-6.4703e-10
-1.14177e-09
-2.29569e-11
2.11345e-10
-2.09004e-11
1.17647e-09
-2.15343e-10
6.93975e-10
-1.59584e-10
-1.33337e-10
-4.24929e-11
-7.64121e-10
-1.18426e-09
-6.05003e-11
2.71847e-10
-2.67582e-11
1.14273e-09
-1.27594e-10
7.94812e-10
1.59143e-11
-2.76844e-10
4.87858e-11
-7.96991e-10
-1.13547e-09
-1.41149e-10
4.12997e-10
-1.47101e-10
1.14868e-09
-1.57212e-10
8.04923e-10
4.13023e-11
-4.75357e-10
1.48019e-10
-9.03707e-10
-9.87455e-10
-1.29741e-10
5.42739e-10
-8.98105e-11
1.10875e-09
-4.52623e-11
7.60376e-10
5.12777e-11
-5.71896e-10
1.74138e-10
-1.02657e-09
-8.13317e-10
1.45733e-10
3.97007e-10
2.59907e-10
9.94582e-10
1.72404e-10
8.47879e-10
6.87082e-11
-4.68199e-10
7.10905e-11
-1.02895e-09
-7.42226e-10
2.48789e-10
1.48219e-10
6.156e-10
6.27772e-10
6.25936e-10
8.37543e-10
4.21977e-10
-2.6424e-10
1.63846e-10
-7.70816e-10
-5.7838e-10
9.59743e-11
5.22468e-11
3.54982e-10
3.68765e-10
5.05372e-10
6.87154e-10
2.91385e-10
-5.0252e-11
-2.40272e-11
-4.55402e-10
-6.02407e-10
-2.46097e-11
7.68565e-11
-1.77523e-11
3.61908e-10
3.85138e-10
2.84263e-10
3.62747e-10
-2.78604e-11
-4.72131e-11
-4.54425e-11
-6.49621e-10
-2.00715e-11
9.69288e-11
3.30246e-10
1.15914e-11
3.83441e-10
2.31068e-10
4.25797e-10
-7.02156e-11
3.10583e-10
6.97716e-11
-3.39038e-10
4.65641e-10
-3.68714e-10
1.16284e-09
-6.85611e-10
7.82796e-10
6.11113e-10
1.51939e-10
5.6064e-10
4.67283e-10
-2.45573e-10
1.28245e-10
-6.52264e-11
-3.03487e-10
9.6757e-11
-8.47594e-10
7.04108e-10
3.76247e-12
1.4179e-10
1.12296e-09
-1.53333e-10
4.95501e-11
-2.50884e-11
9.13523e-10
-1.21701e-09
5.30947e-10
-4.65018e-10
5.87791e-10
-5.30821e-11
3.02925e-10
1.40782e-09
-3.31309e-10
6.83783e-10
-3.56397e-10
5.07861e-10
-1.72487e-09
-9.5239e-12
5.2366e-11
-4.05079e-10
3.42472e-10
-5.02467e-10
1.50521e-09
-6.20923e-10
8.02239e-10
-9.77321e-10
-5.58137e-10
-1.16674e-09
-2.00765e-10
-3.05006e-10
-2.07696e-10
3.49404e-10
-7.51387e-11
1.37265e-09
-1.02029e-10
8.29129e-10
-1.07935e-09
6.11067e-11
-1.22784e-09
-1.58683e-11
-2.28032e-10
-2.65664e-10
5.99199e-10
-2.94677e-10
1.40167e-09
2.94804e-10
2.39648e-10
-7.84546e-10
1.67613e-10
-1.39545e-09