/*--------------------------------*- C++ -*----------------------------------*\
| =========                 |                                                 |
| \\      /  F ield         | OpenFOAM: The Open Source CFD Toolbox           |
|  \\    /   O peration     | Version:  2206                                  |
|   \\  /    A nd           | Website:  www.openfoam.com                      |
|    \\/     M anipulation  |                                                 |
\*---------------------------------------------------------------------------*/
FoamFile
{
    version     2.0;
    format      ascii;
    arch        "LSB;label=32;scalar=64";
    class       volScalarField;
    location    "0";
    object      Cx;
}
// * * * * * * * * * * * * * * * * * * * * * * * * * * * * * * * * * * * * * //

dimensions      [0 1 0 0 0 0 0];

internalField   nonuniform List<scalar> 
50000
(
4.266e-06
9.954e-06
1.62108e-05
2.25489e-05
2.8914e-05
3.52915e-05
4.16755e-05
4.80636e-05
5.44542e-05
6.08466e-05
6.72403e-05
7.36349e-05
8.00302e-05
8.6426e-05
9.28223e-05
9.92189e-05
0.000105616
0.000112013
0.00011841
0.000124808
0.000131206
0.000137603
0.000144001
0.000150399
0.000156797
0.000163195
0.000169594
0.000175992
0.00018239
0.000188789
0.000195187
0.000201585
0.000207984
0.000214382
0.000220781
0.00022718
0.000233578
0.000239977
0.000246375
0.000252774
0.000259173
0.000265571
0.00027197
0.000278369
0.000284767
0.000291166
0.000297565
0.000303964
0.000310362
0.000316761
0.00032316
0.000329559
0.000335958
0.000342356
0.000348755
0.000355154
0.000361553
0.000367952
0.000374351
0.000380749
0.000387148
0.000393547
0.000399946
0.000406345
0.000412744
0.000419143
0.000425542
0.00043194
0.000438339
0.000444738
0.000451137
0.000457536
0.000463935
0.000470334
0.000476733
0.000483132
0.00048953
0.000495929
0.000502328
0.000508727
0.000515126
0.000521525
0.000527924
0.000534323
0.000540722
0.000547121
0.00055352
0.000559919
0.000566318
0.000572716
0.000579115
0.000585514
0.000591913
0.000598312
0.000604711
0.00061111
0.000617509
0.000623908
0.000630307
0.000636706
0.000643105
0.000649504
0.000655903
0.000662302
0.000668701
0.0006751
0.000681499
0.000687897
0.000694296
0.000700695
0.000707094
0.000713493
0.000719892
0.000726291
0.00073269
0.000739089
0.000745488
0.000751887
0.000758286
0.000764685
0.000771084
0.000777483
0.000783882
0.000790281
0.00079668
0.000803079
0.000809478
0.000815877
0.000822276
0.000828675
0.000835074
0.000841473
0.000847872
0.00085427
0.000860669
0.000867068
0.000873467
0.000879866
0.000886265
0.000892664
0.000899063
0.000905462
0.000911861
0.00091826
0.000924659
0.000931058
0.000937457
0.000943856
0.000950255
0.000956654
0.000963053
0.000969452
0.000975851
0.00098225
0.000988649
0.000995048
0.00100145
0.00100785
0.00101424
0.00102064
0.00102704
0.00103344
0.00103984
0.00104624
0.00105264
0.00105904
0.00106544
0.00107184
0.00107823
0.00108463
0.00109103
0.00109743
0.00110383
0.00111023
0.00111663
0.00112303
0.00112943
0.00113583
0.00114222
0.00114862
0.00115502
0.00116142
0.00116782
0.00117422
0.00118062
0.00118702
0.00119342
0.00119982
0.00120621
0.00121261
0.00121901
0.00122541
0.00123181
0.00123821
0.00124461
0.00125101
0.00125741
0.00126381
0.0012702
0.0012766
0.001283
0.0012894
0.0012958
0.0013022
0.0013086
0.001315
0.0013214
0.0013278
0.00133419
0.00134059
0.00134699
0.00135339
0.00135979
0.00136619
0.00137259
0.00137899
0.00138539
0.00139178
0.00139818
0.00140458
0.00141098
0.00141738
0.00142378
0.00143018
0.00143658
0.00144298
0.00144938
0.00145577
0.00146217
0.00146857
0.00147497
0.00148137
0.00148777
0.00149417
0.00150057
0.00150697
0.00151337
0.00151976
0.00152616
0.00153256
0.00153896
0.00154536
0.00155176
0.00155816
0.00156456
0.00157096
0.00157736
0.00158375
0.00159015
0.00159655
0.00160295
0.00160935
0.00161575
0.00162215
0.00162855
0.00163495
0.00164135
0.00164774
0.00165414
0.00166054
0.00166694
0.00167334
0.00167974
0.00168614
0.00169254
0.00169894
0.00170534
0.00171173
0.00171813
0.00172453
0.00173093
0.00173733
0.00174373
0.00175013
0.00175653
0.00176293
0.00176933
0.00177572
0.00178212
0.00178852
0.00179492
0.00180132
0.00180772
0.00181412
0.00182052
0.00182692
0.00183332
0.00183971
0.00184611
0.00185251
0.00185891
0.00186531
0.00187171
0.00187811
0.00188451
0.00189091
0.00189731
0.0019037
0.0019101
0.0019165
0.0019229
0.0019293
0.0019357
0.0019421
0.0019485
0.0019549
0.0019613
0.00196769
0.00197409
0.00198049
0.00198689
0.00199329
0.00199969
0.00200609
0.00201249
0.00201889
0.00202529
0.00203168
0.00203808
0.00204448
0.00205088
0.00205728
0.00206368
0.00207008
0.00207648
0.00208288
0.00208928
0.00209567
0.00210207
0.00210847
0.00211487
0.00212127
0.00212767
0.00213407
0.00214047
0.00214687
0.00215327
0.00215966
0.00216606
0.00217246
0.00217886
0.00218526
0.00219166
0.00219806
0.00220446
0.00221086
0.00221726
0.00222365
0.00223005
0.00223645
0.00224285
0.00224925
0.00225565
0.00226205
0.00226845
0.00227485
0.00228124
0.00228764
0.00229404
0.00230044
0.00230684
0.00231324
0.00231964
0.00232604
0.00233244
0.00233884
0.00234523
0.00235163
0.00235803
0.00236443
0.00237083
0.00237723
0.00238363
0.00239003
0.00239643
0.00240283
0.00240922
0.00241562
0.00242202
0.00242842
0.00243482
0.00244122
0.00244762
0.00245402
0.00246042
0.00246682
0.00247321
0.00247961
0.00248601
0.00249241
0.00249881
0.00250521
0.00251161
0.00251801
0.00252441
0.00253081
0.0025372
0.0025436
0.00255
0.0025564
0.0025628
0.0025692
0.0025756
0.002582
0.0025884
0.0025948
0.00260119
0.00260759
0.00261399
0.00262039
0.00262679
0.00263319
0.00263959
0.00264599
0.00265239
0.00265879
0.00266518
0.00267158
0.00267798
0.00268438
0.00269078
0.00269718
0.00270358
0.00270998
0.00271638
0.00272278
0.00272917
0.00273557
0.00274197
0.00274837
0.00275477
0.00276117
0.00276757
0.00277397
0.00278037
0.00278677
0.00279316
0.00279956
0.00280596
0.00281236
0.00281876
0.00282516
0.00283156
0.00283796
0.00284436
0.00285076
0.00285715
0.00286355
0.00286995
0.00287635
0.00288275
0.00288915
0.00289555
0.00290195
0.00290835
0.00291475
0.00292114
0.00292754
0.00293394
0.00294034
0.00294674
0.00295314
0.00295954
0.00296594
0.00297234
0.00297874
0.00298513
0.00299153
0.00299793
0.00300433
0.00301073
0.00301713
0.00302353
0.00302993
0.00303633
0.00304273
0.00304912
0.00305552
0.00306192
0.00306832
0.00307472
0.00308112
0.00308752
0.00309392
0.00310032
0.00310672
0.00311311
0.00311951
0.00312591
0.00313231
0.00313871
0.00314511
0.00315151
0.00315791
0.00316431
0.00317071
0.0031771
0.0031835
0.0031899
0.0031963
0.0032027
0.0032091
0.0032155
0.0032219
0.0032283
0.0032347
0.00324109
0.00324749
0.00325389
0.00326029
0.00326669
0.00327309
0.00327949
0.00328589
0.00329229
0.00329869
0.00330508
0.00331148
0.00331788
0.00332428
0.00333068
0.00333708
0.00334348
0.00334988
0.00335628
0.00336268
0.00336907
0.00337547
0.00338187
0.00338827
0.00339467
0.00340107
0.00340747
0.00341387
0.00342027
0.00342667
0.00343306
0.00343946
0.00344586
0.00345226
0.00345866
0.00346506
0.00347146
0.00347786
0.00348426
0.00349066
0.00349705
0.00350345
0.00350985
0.00351625
0.00352265
0.00352905
0.00353545
0.00354185
0.00354825
0.00355465
0.00356104
0.00356744
0.00357384
0.00358024
0.00358664
0.00359304
0.00359944
0.00360584
0.00361224
0.00361864
0.00362503
0.00363143
0.00363783
0.00364423
0.00365063
0.00365703
0.00366343
0.00366983
0.00367623
0.00368263
0.00368902
0.00369542
0.00370182
0.00370822
0.00371462
0.00372102
0.00372742
0.00373382
0.00374022
0.00374662
0.00375301
0.00375941
0.00376581
0.00377221
0.00377861
0.00378501
0.00379141
0.00379781
0.00380421
0.00381061
0.003817
0.0038234
0.0038298
0.0038362
0.0038426
0.003849
0.0038554
0.0038618
0.0038682
0.0038746
0.00388099
0.00388739
0.00389379
0.00390019
0.00390659
0.00391299
0.00391939
0.00392579
0.00393219
0.00393859
0.00394498
0.00395138
0.00395778
0.00396418
0.00397058
0.00397698
0.00398338
0.00398978
0.00399618
0.00400258
0.00400897
0.00401537
0.00402177
0.00402817
0.00403457
0.00404097
0.00404737
0.00405377
0.00406017
0.00406657
0.00407296
0.00407936
0.00408576
0.00409216
0.00409856
0.00410496
0.00411136
0.00411776
0.00412416
0.00413056
0.00413695
0.00414335
0.00414975
0.00415615
0.00416255
0.00416895
0.00417535
0.00418175
0.00418815
0.00419455
0.00420094
0.00420734
0.00421374
0.00422014
0.00422654
0.00423294
0.00423934
0.00424574
0.00425214
0.00425854
0.00426493
0.00427133
0.00427773
0.00428413
0.00429053
0.00429693
0.00430333
0.00430973
0.00431613
0.00432253
0.00432892
0.00433532
0.00434172
0.00434812
0.00435452
0.00436092
0.00436732
0.00437372
0.00438012
0.00438652
0.00439291
0.00439931
0.00440571
0.00441211
0.00441851
0.00442491
0.00443131
0.00443771
0.00444411
0.00445051
0.0044569
0.0044633
0.0044697
0.0044761
0.0044825
0.0044889
0.0044953
0.0045017
0.0045081
0.0045145
0.00452089
0.00452729
0.00453369
0.00454009
0.00454649
0.00455289
0.00455929
0.00456569
0.00457209
0.00457849
0.00458488
0.00459128
0.00459768
0.00460408
0.00461048
0.00461688
0.00462328
0.00462968
0.00463608
0.00464248
0.00464887
0.00465527
0.00466167
0.00466807
0.00467447
0.00468087
0.00468727
0.00469367
0.00470007
0.00470647
0.00471286
0.00471926
0.00472566
0.00473206
0.00473846
0.00474486
0.00475126
0.00475766
0.00476406
0.00477046
0.00477685
0.00478325
0.00478965
0.00479605
0.00480245
0.00480885
0.00481525
0.00482165
0.00482805
0.00483445
0.00484084
0.00484724
0.00485364
0.00486004
0.00486644
0.00487284
0.00487924
0.00488564
0.00489204
0.00489844
0.00490483
0.00491123
0.00491763
0.00492403
0.00493043
0.00493683
0.00494323
0.00494963
0.00495603
0.00496243
0.00496882
0.00497522
0.00498162
0.00498802
0.00499442
0.00500082
0.00500722
0.00501362
0.00502002
0.00502642
0.00503281
0.00503921
0.00504561
0.00505201
0.00505841
0.00506481
0.00507121
0.00507761
0.00508401
0.00509041
0.0050968
0.0051032
0.0051096
0.005116
0.0051224
0.0051288
0.0051352
0.0051416
0.005148
0.0051544
0.00516079
0.00516719
0.00517359
0.00517999
0.00518639
0.00519279
0.00519919
0.00520559
0.00521199
0.00521839
0.00522478
0.00523118
0.00523758
0.00524398
0.00525038
0.00525678
0.00526318
0.00526958
0.00527598
0.00528238
0.00528877
0.00529517
0.00530157
0.00530797
0.00531437
0.00532077
0.00532717
0.00533357
0.00533997
0.00534637
0.00535276
0.00535916
0.00536556
0.00537196
0.00537836
0.00538476
0.00539116
0.00539756
0.00540396
0.00541036
0.00541675
0.00542315
0.00542955
0.00543595
0.00544235
0.00544875
0.00545515
0.00546155
0.00546795
0.00547435
0.00548074
0.00548714
0.00549354
0.00549994
0.00550634
0.00551274
0.00551914
0.00552554
0.00553194
0.00553834
0.00554473
0.00555113
0.00555753
0.00556393
0.00557033
0.00557673
0.00558313
0.00558953
0.00559593
0.00560233
0.00560872
0.00561512
0.00562152
0.00562792
0.00563432
0.00564072
0.00564712
0.00565352
0.00565992
0.00566632
0.00567271
0.00567911
0.00568551
0.00569191
0.00569831
0.00570471
0.00571111
0.00571751
0.00572391
0.00573031
0.0057367
0.0057431
0.0057495
0.0057559
0.0057623
0.0057687
0.0057751
0.0057815
0.0057879
0.0057943
0.00580069
0.00580709
0.00581349
0.00581989
0.00582629
0.00583269
0.00583909
0.00584549
0.00585189
0.00585829
0.00586468
0.00587108
0.00587748
0.00588388
0.00589028
0.00589668
0.00590308
0.00590948
0.00591588
0.00592228
0.00592867
0.00593507
0.00594147
0.00594787
0.00595427
0.00596067
0.00596707
0.00597347
0.00597987
0.00598627
0.00599266
0.00599906
0.00600546
0.00601186
0.00601826
0.00602466
0.00603106
0.00603746
0.00604386
0.00605026
0.00605665
0.00606305
0.00606945
0.00607585
0.00608225
0.00608865
0.00609505
0.00610145
0.00610785
0.00611425
0.00612064
0.00612704
0.00613344
0.00613984
0.00614624
0.00615264
0.00615904
0.00616544
0.00617184
0.00617824
0.00618463
0.00619103
0.00619743
0.00620383
0.00621023
0.00621663
0.00622303
0.00622943
0.00623583
0.00624223
0.00624862
0.00625502
0.00626142
0.00626782
0.00627422
0.00628062
0.00628702
0.00629342
0.00629982
0.00630622
0.00631261
0.00631901
0.00632541
0.00633181
0.00633821
0.00634461
0.00635101
0.00635741
0.00636381
0.00637021
0.0063766
0.006383
0.0063894
0.0063958
0.0064022
0.0064086
0.006415
0.0064214
0.0064278
0.0064342
0.00644059
0.00644699
0.00645339
0.00645979
0.00646619
0.00647259
0.00647899
0.00648539
0.00649179
0.00649819
0.00650458
0.00651098
0.00651738
0.00652378
0.00653018
0.00653658
0.00654298
0.00654938
0.00655578
0.00656218
0.00656857
0.00657497
0.00658137
0.00658777
0.00659417
0.00660057
0.00660697
0.00661337
0.00661977
0.00662617
0.00663256
0.00663896
0.00664536
0.00665176
0.00665816
0.00666456
0.00667096
0.00667736
0.00668376
0.00669016
0.00669655
0.00670295
0.00670935
0.00671575
0.00672215
0.00672855
0.00673495
0.00674135
0.00674775
0.00675415
0.00676054
0.00676694
0.00677334
0.00677974
0.00678614
0.00679254
0.00679894
0.00680534
0.00681174
0.00681814
0.00682453
0.00683093
0.00683733
0.00684373
0.00685013
0.00685653
0.00686293
0.00686933
0.00687573
0.00688212
0.00688852
0.00689492
0.00690132
0.00690772
0.00691412
0.00692052
0.00692692
0.00693332
0.00693972
0.00694611
0.00695251
0.00695891
0.00696531
0.00697171
0.00697811
0.00698451
0.00699091
0.00699731
0.00700371
0.0070101
0.0070165
0.0070229
0.0070293
0.0070357
0.0070421
0.0070485
0.0070549
0.0070613
0.0070677
0.00707409
0.00708049
0.00708689
0.00709329
0.00709969
0.00710609
0.00711249
0.00711889
0.00712529
0.00713169
0.00713808
0.00714448
0.00715088
0.00715728
0.00716368
0.00717008
0.00717648
0.00718288
0.00718928
0.00719568
0.00720207
0.00720847
0.00721487
0.00722127
0.00722767
0.00723407
0.00724047
0.00724687
0.00725327
0.00725967
0.00726606
0.00727246
0.00727886
0.00728526
0.00729166
0.00729806
0.00730446
0.00731086
0.00731726
0.00732366
0.00733005
0.00733645
0.00734285
0.00734925
0.00735565
0.00736205
0.00736845
0.00737485
0.00738125
0.00738765
0.00739404
0.00740044
0.00740684
0.00741324
0.00741964
0.00742604
0.00743244
0.00743884
0.00744524
0.00745164
0.00745803
0.00746443
0.00747083
0.00747723
0.00748363
0.00749003
0.00749643
0.00750283
0.00750923
0.00751563
0.00752202
0.00752842
0.00753482
0.00754122
0.00754762
0.00755402
0.00756042
0.00756682
0.00757322
0.00757962
0.00758601
0.00759241
0.00759881
0.00760521
0.00761161
0.00761801
0.00762441
0.00763081
0.00763721
0.00764361
0.00765
0.0076564
0.0076628
0.0076692
0.0076756
0.007682
0.0076884
0.0076948
0.0077012
0.0077076
0.00771399
0.00772039
0.00772679
0.00773319
0.00773959
0.00774599
0.00775239
0.00775879
0.00776519
0.00777159
0.00777798
0.00778438
0.00779078
0.00779718
0.00780358
0.00780998
0.00781638
0.00782278
0.00782918
0.00783558
0.00784197
0.00784837
0.00785477
0.00786117
0.00786757
0.00787397
0.00788037
0.00788677
0.00789317
0.00789957
0.00790596
0.00791236
0.00791876
0.00792516
0.00793156
0.00793796
0.00794436
0.00795076
0.00795716
0.00796356
0.00796995
0.00797635
0.00798275
0.00798915
0.00799555
0.00800195
0.00800835
0.00801475
0.00802115
0.00802755
0.00803394
0.00804034
0.00804674
0.00805314
0.00805954
0.00806594
0.00807234
0.00807874
0.00808514
0.00809154
0.00809793
0.00810433
0.00811073
0.00811713
0.00812353
0.00812993
0.00813633
0.00814273
0.00814913
0.00815553
0.00816192
0.00816832
0.00817472
0.00818112
0.00818752
0.00819392
0.00820032
0.00820672
0.00821312
0.00821952
0.00822591
0.00823231
0.00823871
0.00824511
0.00825151
0.00825791
0.00826431
0.00827071
0.00827711
0.00828351
0.0082899
0.0082963
0.0083027
0.0083091
0.0083155
0.0083219
0.0083283
0.0083347
0.0083411
0.0083475
0.00835389
0.00836029
0.00836669
0.00837309
0.00837949
0.00838589
0.00839229
0.00839869
0.00840509
0.00841149
0.00841788
0.00842428
0.00843068
0.00843708
0.00844348
0.00844988
0.00845628
0.00846268
0.00846908
0.00847548
0.00848187
0.00848827
0.00849467
0.00850107
0.00850747
0.00851387
0.00852027
0.00852667
0.00853307
0.00853947
0.00854586
0.00855226
0.00855866
0.00856506
0.00857146
0.00857786
0.00858426
0.00859066
0.00859706
0.00860346
0.00860985
0.00861625
0.00862265
0.00862905
0.00863545
0.00864185
0.00864825
0.00865465
0.00866105
0.00866745
0.00867384
0.00868024
0.00868664
0.00869304
0.00869944
0.00870584
0.00871224
0.00871864
0.00872504
0.00873144
0.00873783
0.00874423
0.00875063
0.00875703
0.00876343
0.00876983
0.00877623
0.00878263
0.00878903
0.00879543
0.00880182
0.00880822
0.00881462
0.00882102
0.00882742
0.00883382
0.00884022
0.00884662
0.00885302
0.00885942
0.00886581
0.00887221
0.00887861
0.00888501
0.00889141
0.00889781
0.00890421
0.00891061
0.00891701
0.00892341
0.0089298
0.0089362
0.0089426
0.008949
0.0089554
0.0089618
0.0089682
0.0089746
0.008981
0.0089874
0.00899379
0.00900019
0.00900659
0.00901299
0.00901939
0.00902579
0.00903219
0.00903859
0.00904499
0.00905139
0.00905778
0.00906418
0.00907058
0.00907698
0.00908338
0.00908978
0.00909618
0.00910258
0.00910898
0.00911538
0.00912177
0.00912817
0.00913457
0.00914097
0.00914737
0.00915377
0.00916017
0.00916657
0.00917297
0.00917937
0.00918576
0.00919216
0.00919856
0.00920496
0.00921136
0.00921776
0.00922416
0.00923056
0.00923696
0.00924336
0.00924975
0.00925615
0.00926255
0.00926895
0.00927535
0.00928175
0.00928815
0.00929455
0.00930095
0.00930735
0.00931374
0.00932014
0.00932654
0.00933294
0.00933934
0.00934574
0.00935214
0.00935854
0.00936494
0.00937134
0.00937773
0.00938413
0.00939053
0.00939693
0.00940333
0.00940973
0.00941613
0.00942253
0.00942893
0.00943533
0.00944172
0.00944812
0.00945452
0.00946092
0.00946732
0.00947372
0.00948012
0.00948652
0.00949292
0.00949932
0.00950571
0.00951211
0.00951851
0.00952491
0.00953131
0.00953771
0.00954411
0.00955051
0.00955691
0.00956331
0.0095697
0.0095761
0.0095825
0.0095889
0.0095953
0.0096017
0.0096081
0.0096145
0.0096209
0.0096273
0.00963369
0.00964009
0.00964649
0.00965289
0.00965929
0.00966569
0.00967209
0.00967849
0.00968489
0.00969129
0.00969768
0.00970408
0.00971048
0.00971688
0.00972328
0.00972968
0.00973608
0.00974248
0.00974888
0.00975528
0.00976167
0.00976807
0.00977447
0.00978087
0.00978727
0.00979367
0.00980007
0.00980647
0.00981287
0.00981927
0.00982566
0.00983206
0.00983846
0.00984486
0.00985126
0.00985766
0.00986406
0.00987046
0.00987686
0.00988326
0.00988965
0.00989605
0.00990245
0.00990885
0.00991525
0.00992165
0.00992805
0.00993445
0.00994085
0.00994725
0.00995364
0.00996004
0.00996644
0.00997284
0.00997924
0.00998564
0.00999204
0.00999844
0.0100048
0.0100112
0.0100176
0.010024
0.0100304
0.0100368
0.0100432
0.0100496
0.010056
0.0100624
0.0100688
0.0100752
0.0100816
0.010088
0.0100944
0.0101008
0.0101072
0.0101136
0.01012
0.0101264
0.0101328
0.0101392
0.0101456
0.010152
0.0101584
0.0101648
0.0101712
0.0101776
0.010184
0.0101904
0.0101968
0.0102032
0.0102096
0.010216
0.0102224
0.0102288
0.0102352
0.0102416
0.010248
0.0102544
0.0102608
0.0102672
0.0102736
0.01028
0.0102864
0.0102928
0.0102992
0.0103056
0.010312
0.0103184
0.0103248
0.0103312
0.0103376
0.010344
0.0103504
0.0103568
0.0103632
0.0103696
0.010376
0.0103824
0.0103888
0.0103952
0.0104016
0.010408
0.0104144
0.0104208
0.0104272
0.0104336
0.01044
0.0104464
0.0104528
0.0104592
0.0104656
0.010472
0.0104784
0.0104848
0.0104912
0.0104976
0.010504
0.0105104
0.0105168
0.0105232
0.0105296
0.010536
0.0105424
0.0105488
0.0105552
0.0105615
0.0105679
0.0105743
0.0105807
0.0105871
0.0105935
0.0105999
0.0106063
0.0106127
0.0106191
0.0106255
0.0106319
0.0106383
0.0106447
0.0106511
0.0106575
0.0106639
0.0106703
0.0106767
0.0106831
0.0106895
0.0106959
0.0107023
0.0107087
0.0107151
0.0107215
0.0107279
0.0107343
0.0107407
0.0107471
0.0107535
0.0107599
0.0107663
0.0107727
0.0107791
0.0107855
0.0107919
0.0107983
0.0108047
0.0108111
0.0108175
0.0108239
0.0108303
0.0108367
0.0108431
0.0108495
0.0108559
0.0108623
0.0108687
0.0108751
0.0108815
0.0108879
0.0108943
0.0109007
0.0109071
0.0109135
0.0109199
0.0109263
0.0109327
0.0109391
0.0109455
0.0109519
0.0109583
0.0109647
0.0109711
0.0109775
0.0109839
0.0109903
0.0109967
0.0110031
0.0110095
0.0110159
0.0110223
0.0110287
0.0110351
0.0110415
0.0110479
0.0110543
0.0110607
0.0110671
0.0110735
0.0110799
0.0110863
0.0110927
0.0110991
0.0111055
0.0111119
0.0111183
0.0111247
0.0111311
0.0111375
0.0111439
0.0111503
0.0111567
0.0111631
0.0111695
0.0111759
0.0111823
0.0111887
0.0111951
0.0112014
0.0112078
0.0112142
0.0112206
0.011227
0.0112334
0.0112398
0.0112462
0.0112526
0.011259
0.0112654
0.0112718
0.0112782
0.0112846
0.011291
0.0112974
0.0113038
0.0113102
0.0113166
0.011323
0.0113294
0.0113358
0.0113422
0.0113486
0.011355
0.0113614
0.0113678
0.0113742
0.0113806
0.011387
0.0113934
0.0113998
0.0114062
0.0114126
0.011419
0.0114254
0.0114318
0.0114382
0.0114446
0.011451
0.0114574
0.0114638
0.0114702
0.0114766
0.011483
0.0114894
0.0114958
0.0115022
0.0115086
0.011515
0.0115214
0.0115278
0.0115342
0.0115406
0.011547
0.0115534
0.0115598
0.0115662
0.0115726
0.011579
0.0115854
0.0115918
0.0115982
0.0116046
0.011611
0.0116174
0.0116238
0.0116302
0.0116366
0.011643
0.0116494
0.0116558
0.0116622
0.0116686
0.011675
0.0116814
0.0116878
0.0116942
0.0117006
0.011707
0.0117134
0.0117198
0.0117262
0.0117326
0.011739
0.0117454
0.0117518
0.0117582
0.0117646
0.011771
0.0117774
0.0117838
0.0117902
0.0117966
0.011803
0.0118094
0.0118158
0.0118222
0.0118286
0.011835
0.0118413
0.0118477
0.0118541
0.0118605
0.0118669
0.0118733
0.0118797
0.0118861
0.0118925
0.0118989
0.0119053
0.0119117
0.0119181
0.0119245
0.0119309
0.0119373
0.0119437
0.0119501
0.0119565
0.0119629
0.0119693
0.0119757
0.0119821
0.0119885
0.0119949
0.0120013
0.0120077
0.0120141
0.0120205
0.0120269
0.0120333
0.0120397
0.0120461
0.0120525
0.0120589
0.0120653
0.0120717
0.0120781
0.0120845
0.0120909
0.0120973
0.0121037
0.0121101
0.0121165
0.0121229
0.0121293
0.0121357
0.0121421
0.0121485
0.0121549
0.0121613
0.0121677
0.0121741
0.0121805
0.0121869
0.0121933
0.0121997
0.0122061
0.0122125
0.0122189
0.0122253
0.0122317
0.0122381
0.0122445
0.0122509
0.0122573
0.0122637
0.0122701
0.0122765
0.0122829
0.0122893
0.0122957
0.0123021
0.0123085
0.0123149
0.0123213
0.0123277
0.0123341
0.0123405
0.0123469
0.0123533
0.0123597
0.0123661
0.0123725
0.0123789
0.0123853
0.0123917
0.0123981
0.0124045
0.0124109
0.0124173
0.0124237
0.0124301
0.0124365
0.0124429
0.0124493
0.0124557
0.0124621
0.0124685
0.0124749
0.0124812
0.0124876
0.012494
0.0125004
0.0125068
0.0125132
0.0125196
0.012526
0.0125324
0.0125388
0.0125452
0.0125516
0.012558
0.0125644
0.0125708
0.0125772
0.0125836
0.01259
0.0125964
0.0126028
0.0126092
0.0126156
0.012622
0.0126284
0.0126348
0.0126412
0.0126476
0.012654
0.0126604
0.0126668
0.0126732
0.0126796
0.012686
0.0126924
0.0126988
0.0127052
0.0127116
0.012718
0.0127244
0.0127308
0.0127372
0.0127436
0.01275
0.0127564
0.0127628
0.0127692
0.0127756
0.012782
0.0127884
0.0127948
0.0128012
0.0128076
0.012814
0.0128204
0.0128268
0.0128332
0.0128396
0.012846
0.0128524
0.0128588
0.0128652
0.0128716
0.012878
0.0128844
0.0128908
0.0128972
0.0129036
0.01291
0.0129164
0.0129228
0.0129292
0.0129356
0.012942
0.0129484
0.0129548
0.0129612
0.0129676
0.012974
0.0129804
0.0129868
0.0129932
0.0129996
0.013006
0.0130124
0.0130188
0.0130252
0.0130316
0.013038
0.0130444
0.0130508
0.0130572
0.0130636
0.01307
0.0130764
0.0130828
0.0130892
0.0130956
0.013102
0.0131084
0.0131148
0.0131211
0.0131275
0.0131339
0.0131403
0.0131467
0.0131531
0.0131595
0.0131659
0.0131723
0.0131787
0.0131851
0.0131915
0.0131979
0.0132043
0.0132107
0.0132171
0.0132235
0.0132299
0.0132363
0.0132427
0.0132491
0.0132555
0.0132619
0.0132683
0.0132747
0.0132811
0.0132875
0.0132939
0.0133003
0.0133067
0.0133131
0.0133195
0.0133259
0.0133323
0.0133387
0.0133451
0.0133515
0.0133579
0.0133643
0.0133707
0.0133771
0.0133835
0.0133899
0.0133963
0.0134027
0.0134091
0.0134155
0.0134219
0.0134283
0.0134347
0.0134411
0.0134475
0.0134539
0.0134603
0.0134667
0.0134731
0.0134795
0.0134859
0.0134923
0.0134987
0.0135051
0.0135115
0.0135179
0.0135243
0.0135307
0.0135371
0.0135435
0.0135499
0.0135563
0.0135627
0.0135691
0.0135755
0.0135819
0.0135883
0.0135947
0.0136011
0.0136075
0.0136139
0.0136203
0.0136267
0.0136331
0.0136395
0.0136459
0.0136523
0.0136587
0.0136651
0.0136715
0.0136779
0.0136843
0.0136907
0.0136971
0.0137035
0.0137099
0.0137163
0.0137227
0.0137291
0.0137355
0.0137419
0.0137483
0.0137547
0.013761
0.0137674
0.0137738
0.0137802
0.0137866
0.013793
0.0137994
0.0138058
0.0138122
0.0138186
0.013825
0.0138314
0.0138378
0.0138442
0.0138506
0.013857
0.0138634
0.0138698
0.0138762
0.0138826
0.013889
0.0138954
0.0139018
0.0139082
0.0139146
0.013921
0.0139274
0.0139338
0.0139402
0.0139466
0.013953
0.0139594
0.0139658
0.0139722
0.0139786
0.013985
0.0139914
0.0139978
0.0140042
0.0140106
0.014017
0.0140234
0.0140298
0.0140362
0.0140426
0.014049
0.0140554
0.0140618
0.0140682
0.0140746
0.014081
0.0140874
0.0140938
0.0141002
0.0141066
0.014113
0.0141194
0.0141258
0.0141322
0.0141386
0.014145
0.0141514
0.0141578
0.0141642
0.0141706
0.014177
0.0141834
0.0141898
0.0141962
0.0142026
0.014209
0.0142154
0.0142218
0.0142282
0.0142346
0.014241
0.0142474
0.0142538
0.0142602
0.0142666
0.014273
0.0142794
0.0142858
0.0142922
0.0142986
0.014305
0.0143114
0.0143178
0.0143242
0.0143306
0.014337
0.0143434
0.0143498
0.0143562
0.0143626
0.014369
0.0143754
0.0143818
0.0143882
0.0143946
0.0144009
0.0144073
0.0144137
0.0144201
0.0144265
0.0144329
0.0144393
0.0144457
0.0144521
0.0144585
0.0144649
0.0144713
0.0144777
0.0144841
0.0144905
0.0144969
0.0145033
0.0145097
0.0145161
0.0145225
0.0145289
0.0145353
0.0145417
0.0145481
0.0145545
0.0145609
0.0145673
0.0145737
0.0145801
0.0145865
0.0145929
0.0145993
0.0146057
0.0146121
0.0146185
0.0146249
0.0146313
0.0146377
0.0146441
0.0146505
0.0146569
0.0146633
0.0146697
0.0146761
0.0146825
0.0146889
0.0146953
0.0147017
0.0147081
0.0147145
0.0147209
0.0147273
0.0147337
0.0147401
0.0147465
0.0147529
0.0147593
0.0147657
0.0147721
0.0147785
0.0147849
0.0147913
0.0147977
0.0148041
0.0148105
0.0148169
0.0148233
0.0148297
0.0148361
0.0148425
0.0148489
0.0148553
0.0148617
0.0148681
0.0148745
0.0148809
0.0148873
0.0148937
0.0149001
0.0149065
0.0149129
0.0149193
0.0149257
0.0149321
0.0149385
0.0149449
0.0149513
0.0149577
0.0149641
0.0149705
0.0149769
0.0149833
0.0149897
0.0149961
0.0150025
0.0150089
0.0150153
0.0150217
0.0150281
0.0150345
0.0150408
0.0150472
0.0150536
0.01506
0.0150664
0.0150728
0.0150792
0.0150856
0.015092
0.0150984
0.0151048
0.0151112
0.0151176
0.015124
0.0151304
0.0151368
0.0151432
0.0151496
0.015156
0.0151624
0.0151688
0.0151752
0.0151816
0.015188
0.0151944
0.0152008
0.0152072
0.0152136
0.01522
0.0152264
0.0152328
0.0152392
0.0152456
0.015252
0.0152584
0.0152648
0.0152712
0.0152776
0.015284
0.0152904
0.0152968
0.0153032
0.0153096
0.015316
0.0153224
0.0153288
0.0153352
0.0153416
0.015348
0.0153544
0.0153608
0.0153672
0.0153736
0.01538
0.0153864
0.0153928
0.0153992
0.0154056
0.015412
0.0154184
0.0154248
0.0154312
0.0154376
0.015444
0.0154504
0.0154568
0.0154632
0.0154696
0.015476
0.0154824
0.0154888
0.0154952
0.0155016
0.015508
0.0155144
0.0155208
0.0155272
0.0155336
0.01554
0.0155464
0.0155528
0.0155592
0.0155656
0.015572
0.0155784
0.0155848
0.0155912
0.0155976
0.015604
0.0156104
0.0156168
0.0156232
0.0156296
0.015636
0.0156424
0.0156488
0.0156552
0.0156616
0.015668
0.0156744
0.0156807
0.0156871
0.0156935
0.0156999
0.0157063
0.0157127
0.0157191
0.0157255
0.0157319
0.0157383
0.0157447
0.0157511
0.0157575
0.0157639
0.0157703
0.0157767
0.0157831
0.0157895
0.0157959
0.0158023
0.0158087
0.0158151
0.0158215
0.0158279
0.0158343
0.0158407
0.0158471
0.0158535
0.0158599
0.0158663
0.0158727
0.0158791
0.0158855
0.0158919
0.0158983
0.0159047
0.0159111
0.0159175
0.0159239
0.0159303
0.0159367
0.0159431
0.0159495
0.0159559
0.0159623
0.0159687
0.0159751
0.0159815
0.0159879
0.0159943
0.0160007
0.0160071
0.0160135
0.0160199
0.0160263
0.0160327
0.0160391
0.0160455
0.0160519
0.0160583
0.0160647
0.0160711
0.0160775
0.0160839
0.0160903
0.0160967
0.0161031
0.0161095
0.0161159
0.0161223
0.0161287
0.0161351
0.0161415
0.0161479
0.0161543
0.0161607
0.0161671
0.0161735
0.0161799
0.0161863
0.0161927
0.0161991
0.0162055
0.0162119
0.0162183
0.0162247
0.0162311
0.0162375
0.0162439
0.0162503
0.0162567
0.0162631
0.0162695
0.0162759
0.0162823
0.0162887
0.0162951
0.0163015
0.0163079
0.0163143
0.0163206
0.016327
0.0163334
0.0163398
0.0163462
0.0163526
0.016359
0.0163654
0.0163718
0.0163782
0.0163846
0.016391
0.0163974
0.0164038
0.0164102
0.0164166
0.016423
0.0164294
0.0164358
0.0164422
0.0164486
0.016455
0.0164614
0.0164678
0.0164742
0.0164806
0.016487
0.0164934
0.0164998
0.0165062
0.0165126
0.016519
0.0165254
0.0165318
0.0165382
0.0165446
0.016551
0.0165574
0.0165638
0.0165702
0.0165766
0.016583
0.0165894
0.0165958
0.0166022
0.0166086
0.016615
0.0166214
0.0166278
0.0166342
0.0166406
0.016647
0.0166534
0.0166598
0.0166662
0.0166726
0.016679
0.0166854
0.0166918
0.0166982
0.0167046
0.016711
0.0167174
0.0167238
0.0167302
0.0167366
0.016743
0.0167494
0.0167558
0.0167622
0.0167686
0.016775
0.0167814
0.0167878
0.0167942
0.0168006
0.016807
0.0168134
0.0168198
0.0168262
0.0168326
0.016839
0.0168454
0.0168518
0.0168582
0.0168646
0.016871
0.0168774
0.0168838
0.0168902
0.0168966
0.016903
0.0169094
0.0169158
0.0169222
0.0169286
0.016935
0.0169414
0.0169478
0.0169542
0.0169605
0.0169669
0.0169733
0.0169797
0.0169861
0.0169925
0.0169989
0.0170053
0.0170117
0.0170181
0.0170245
0.0170309
0.0170373
0.0170437
0.0170501
0.0170565
0.0170629
0.0170693
0.0170757
0.0170821
0.0170885
0.0170949
0.0171013
0.0171077
0.0171141
0.0171205
0.0171269
0.0171333
0.0171397
0.0171461
0.0171525
0.0171589
0.0171653
0.0171717
0.0171781
0.0171845
0.0171909
0.0171973
0.0172037
0.0172101
0.0172165
0.0172229
0.0172293
0.0172357
0.0172421
0.0172485
0.0172549
0.0172613
0.0172677
0.0172741
0.0172805
0.0172869
0.0172933
0.0172997
0.0173061
0.0173125
0.0173189
0.0173253
0.0173317
0.0173381
0.0173445
0.0173509
0.0173573
0.0173637
0.0173701
0.0173765
0.0173829
0.0173893
0.0173957
0.0174021
0.0174085
0.0174149
0.0174213
0.0174277
0.0174341
0.0174405
0.0174469
0.0174533
0.0174597
0.0174661
0.0174725
0.0174789
0.0174853
0.0174917
0.0174981
0.0175045
0.0175109
0.0175173
0.0175237
0.0175301
0.0175365
0.0175429
0.0175493
0.0175557
0.0175621
0.0175685
0.0175749
0.0175813
0.0175877
0.0175941
0.0176004
0.0176068
0.0176132
0.0176196
0.017626
0.0176324
0.0176388
0.0176452
0.0176516
0.017658
0.0176644
0.0176708
0.0176772
0.0176836
0.01769
0.0176964
0.0177028
0.0177092
0.0177156