/*--------------------------------*- C++ -*----------------------------------*\
| =========                 |                                                 |
| \\      /  F ield         | OpenFOAM: The Open Source CFD Toolbox           |
|  \\    /   O peration     | Version:  2206                                  |
|   \\  /    A nd           | Website:  www.openfoam.com                      |
|    \\/     M anipulation  |                                                 |
\*---------------------------------------------------------------------------*/
FoamFile
{
    version     2.0;
    format      ascii;
    arch        "LSB;label=32;scalar=64";
    class       volScalarField;
    location    "0";
    object      Cy;
}
// * * * * * * * * * * * * * * * * * * * * * * * * * * * * * * * * * * * * * //

dimensions      [0 1 0 0 0 0 0];

internalField   nonuniform List<scalar> 
50000
(
0
-1.08436e-23
0
0
9.52578e-24
0
5.41272e-23
0
-4.1041e-23
0
0
-3.12332e-23
0
-1.04452e-22
4.87257e-23
0
0
3.91918e-23
-7.41466e-23
7.03442e-23
-1.03246e-22
0
0
-6.1256e-23
0
1.10475e-22
2.12834e-22
4.98804e-23
0
4.64987e-23
2.75641e-22
2.67078e-22
8.44131e-23
8.18933e-23
-7.95195e-23
0
3.0646e-22
0
-1.42516e-22
-1.38908e-22
0
4.02459e-22
0
0
1.233e-22
0
0
-3.58192e-22
0
0
0
-2.18913e-22
0
1.02558e-22
0
0
9.71124e-23
0
0
3.8054e-22
-3.74445e-22
0
0
0
0
0
6.71758e-22
6.67823e-22
0
0
0
-1.53478e-22
3.14415e-22
0
-4.53588e-22
0
0
1.29899e-22
0
-5.63834e-22
0
0
0
0
2.59732e-22
2.56695e-22
2.65431e-22
0
5.07692e-22
0
2.42513e-22
-4.91432e-22
-2.37269e-22
-2.4644e-22
-2.20539e-22
0
0
2.25101e-22
4.45632e-22
4.52865e-22
-2.18382e-22
1.17128e-23
-2.14121e-22
-2.12052e-22
4.20046e-22
-4.39494e-22
0
0
2.13996e-22
4.00866e-22
0
-1.96838e-22
3.78458e-22
0
0
1.90021e-22
5.88608e-22
3.85293e-22
1.7349e-22
-1.17206e-23
0
-3.72995e-22
1.17216e-23
-3.67145e-22
0
3.61482e-22
3.35271e-22
0
6.94911e-22
3.38956e-22
0
0
-3.43006e-22
3.288e-22
0
0
1.1726e-23
3.19235e-22
-9.74243e-22
3.14658e-22
0
0
0
0
0
0
2.99623e-22
9.16233e-22
0
0
6.06779e-22
-3.13194e-22
0
-5.9538e-22
5.68217e-22
0
0
1.11479e-21
-5.53877e-22
-5.73868e-22
0
-2.34639e-23
0
0
-5.5714e-22
5.30451e-22
2.40167e-22
0
1.04201e-21
5.17933e-22
5.14895e-22
-5.58828e-22
0
1.01198e-21
0
-5.23695e-22
0
0
4.91818e-22
1.00163e-21
-2.34707e-23
0
-5.0451e-22
9.80306e-22
-4.75824e-22
9.23046e-22
9.64916e-22
-2.34729e-23
0
1.41328e-21
1.38251e-21
9.40337e-22
-4.69487e-23
-9.54335e-22
-1.37756e-21
-4.49052e-22
0
-2.34757e-23
0
-9.27049e-22
0
-2.34768e-23
-8.90535e-22
-8.62797e-22
-4.52766e-22
4.50678e-22
4.01653e-22
-8.93121e-22
1.26316e-21
4.19043e-22
0
-8.53641e-22
-2.34795e-23
0
0
-4.30856e-22
0
4.50591e-22
-4.72225e-22
1.22334e-21
-8.4324e-22
1.58536e-21
3.71078e-22
0
0
3.65828e-22
-2.37252e-21
3.62406e-22
-3.84199e-22
3.59042e-22
-1.16608e-21
2.725e-21
-2.34837e-23
0
7.48738e-22
3.49295e-22
-3.94688e-22
0
7.59666e-22
-7.56592e-22
7.06574e-22
-2.34854e-23
0
-2.34857e-23
-1.43623e-21
0
-2.34863e-23
1.44231e-21
7.06556e-22
0
-7.24402e-22
6.98128e-22
1.39073e-21
-2.34874e-23
0
-2.34878e-23
0
1.34023e-21
0
-1.40019e-21
-2.34885e-23
0
6.45384e-22
-2.3489e-23
-4.69783e-23
0
0
6.56371e-22
-2.34897e-23
-4.69798e-23
1.99425e-21
1.26991e-21
0
-4.69809e-23
-4.69812e-23
0
1.27001e-21
1.31242e-21
-6.77428e-22
0
0
6.23727e-22
0
-6.6631e-22
0
1.22998e-21
2.49835e-21
2.48983e-21
-1.26417e-21
-1.21298e-21
1.20881e-21
-1.25165e-21
1.20054e-21
0
1.23937e-21
1.18835e-21
-4.69868e-23
-1.81753e-21
0
5.86241e-22
1.21557e-21
-1.79404e-21
-4.69882e-23
0
-1.20022e-21
0
0
-1.14198e-21
5.69138e-22
1.1346e-21
0
0
4.69904e-23
2.28724e-21
0
0
4.69913e-23
5.99997e-22
0
0
-2.23831e-21
1.68537e-21
1.68029e-21
4.97872e-21
0
0
-2.7358e-21
0
1.06898e-21
0
5.78247e-22
0
0
0
2.0996e-21
5.70331e-22
1.09056e-21
1.04047e-21
0
-2.16267e-21
1.0783e-21
1.07528e-21
-4.69963e-23
1.06929e-21
2.08565e-21
-1.01638e-21
-1.01344e-21
1.01053e-21
0
0
0
9.99028e-22
0
0
1.03757e-21
0
9.85016e-22
-9.82261e-22
2.00604e-21
2.00059e-21
0
1.98978e-21
0
1.01305e-21
1.97379e-21
0
0
-2.9136e-21
-9.05939e-22
0
9.47796e-22
0
0
-9.40183e-22
9.37672e-22
0
0
9.77223e-22
0
0
4.66143e-21
0
4.70027e-23
-9.15667e-22
4.66043e-21
-9.10917e-22
0
1.00022e-21
-1.80776e-21
0
3.69102e-21
9.4396e-22
8.94671e-22
0
8.90135e-22
0
1.8653e-21
3.62768e-21
8.812e-22
0
0
-1.74923e-21
0
2.65785e-21
0
-1.73198e-21
9.10864e-22
3.54096e-21
1.76626e-21
-8.57529e-22
8.5544e-22
-9.00368e-22
1.70259e-21
0
-2.63557e-21
8.45146e-22
-8.90124e-22
-6.02871e-21
0
4.70075e-23
0
-8.80124e-22
0
-4.23992e-21
8.74236e-22
0
0
0
4.19155e-21
4.70087e-23
3.35681e-21
-8.13808e-22
8.11927e-22
-7.63045e-22
-8.08189e-22
-8.06334e-22
0
0
4.70097e-23
4.70098e-23
1.64137e-21
0
2.42774e-21
1.63059e-21
8.37018e-22
7.88234e-22
0
4.70106e-23
-8.29972e-22
1.60945e-21
7.79486e-22
0
4.70112e-23
-7.74329e-22
7.72626e-22
0
0
-7.20548e-22
4.73635e-21
0
0
1.52181e-21
0
0
3.02397e-21
0
3.81077e-21
1.50228e-21
1.54609e-21
0
-3.8728e-21
0
0
7.41623e-22
0
1.52402e-21
0
0
0
0
-1.50865e-21
0
-2.91116e-21
0
0
-2.94018e-21
0
-4.36896e-21
0
4.70147e-23
4.34253e-21
1.47594e-21
0
2.89328e-21
4.70151e-23
2.88179e-21
0
0
0
9.4031e-23
1.49726e-21
1.40043e-21
0
4.70158e-23
0
1.43637e-21
1.38661e-21
2.76775e-21
-2.71529e-21
0
4.17424e-21
0
2.83478e-21
4.70167e-23
4.23619e-21
1.40942e-21
0
-4.16543e-21
1.40153e-21
1.35191e-21
0
0
2.68829e-21
-4.70174e-23
2.81909e-21
2.71996e-21
0
1.33141e-21
-1.3759e-21
0
2.69477e-21
0
0
-4.70182e-23
1.31397e-21
0
4.70184e-23
2.66029e-21
0
1.30179e-21
0
2.688e-21
0
1.33923e-21
0
0
1.33214e-21
3.94235e-21
0
0
-2.55156e-21
0
0
0
1.26658e-21
-1.2643e-21
-1.26202e-21
0
0
1.25526e-21
-1.25302e-21
-3.8464e-21
5.08829e-21
0
-2.48828e-21
-1.24194e-21
-1.23975e-21
0
0
2.56047e-21
0
1.2289e-21
0
0
-2.44497e-21
0
3.65473e-21
0
0
-3.72985e-21
3.72359e-21
2.41553e-21
0
0
0
1.19952e-21
0
0
1.1934e-21
-1.28542e-21
-1.2834e-21
0
-1.18534e-21
3.64409e-21
0
1.17937e-21
2.35479e-21
2.4449e-21
0
0
2.33911e-21
0
-2.33134e-21
0
3.57949e-21
0
-1.15798e-21
0
0
3.5509e-21
2.39484e-21
-2.29703e-21
0
4.76717e-21
-3.52277e-21
0
1.23325e-21
-3.50611e-21
-2.27103e-21
0
-9.40474e-23
3.48415e-21
3.47871e-21
0
0
-2.33966e-21
-2.24203e-21
0
2.32895e-21
0
1.1139e-21
4.54261e-21
-9.07115e-21
0
3.41469e-21
4.51461e-21
2.30086e-21
0
0
4.48696e-21
0
2.28366e-21
-1.0026e-20
0
4.45288e-21
0
4.4394e-21
0
2.16597e-21
4.41933e-21
0
1.17205e-21
0
0
7.79356e-21
0
9.40511e-23
0
0
1.15897e-21
-1.06331e-21
0
0
0
1.15096e-21
0
0
1.14621e-21
5.34698e-21
1.14307e-21
-2.18896e-21
0
0
0
9.40528e-23
0
6.41708e-21
-2.07326e-21
0
2.16121e-21
0
-6.37138e-21
0
-4.29823e-21
9.40537e-23
-6.3353e-21
2.04608e-21
0
2.13419e-21
0
9.40542e-23
-2.03128e-21
-2.12241e-21
2.02543e-21
0
4.13326e-21
0
-2.01381e-21
0
0
2.09924e-21
0
0
-3.99327e-21
6.07546e-21
6.16104e-21
8.04669e-21
4.06475e-21
0
1.97975e-21
2.07102e-21
0
2.06547e-21
0
4.02585e-21
8.04071e-21
0
0
2.04901e-21
0
6.03669e-21
0
0
2.0355e-21
0
-1.93609e-21
-3.96091e-21
-2.02482e-21
9.40573e-23
0
0
0
0
9.40577e-23
0
0
0
0
9.40581e-23
-1.89944e-21
-1.89687e-21
0
1.89176e-21
1.98328e-21
-3.86742e-21
-1.88415e-21
0
-3.85227e-21
9.40589e-23
0
0
1.96317e-21
-1.86662e-21
9.40593e-23
0
0
9.40595e-23
0
0
-3.69884e-21
0
1.93862e-21
0
1.93379e-21
0
-5.59883e-21
1.92659e-21
0
1.92182e-21
0
0
3.82943e-21
-1.8183e-21
5.54189e-21
3.72126e-21
0
-1.80893e-21
1.8066e-21
0
-7.30193e-21
0
3.78283e-21
0
0
9.40614e-23
0
7.33184e-21
0
0
-7.21063e-21
1.77689e-21
5.51207e-21
0
1.77017e-21
1.86201e-21
9.01674e-21
3.62108e-21
0
3.61224e-21
-1.75689e-21
1.75469e-21
1.84657e-21
0
0
1.84003e-21
-3.58167e-21
0
9.4063e-23
0
9.40631e-23
0
0
-3.45756e-21
-3.45331e-21
1.8186e-21
3.63297e-21
0
-1.71821e-21
-1.81017e-21
1.80808e-21
0
0
0
0
1.79768e-21
0
0
-3.39488e-21
0
9.40643e-23
0
0
-3.37449e-21
8.61424e-21
0
1.77525e-21
0
-1.67717e-21
0
1.67318e-21
-1.67119e-21
3.3384e-21
9.40651e-23
0
0
6.83335e-21
0
-4.87809e-21
0
0
3.39714e-21
0
9.40657e-23
0
-1.64381e-21
1.73595e-21
1.63997e-21
1.73212e-21
0
0
3.35876e-21
0
0
-1.53261e-21
0
-1.62292e-21
0
0
9.40666e-23
0
0
1.15644e-20
0
-1.51398e-21
-4.91271e-21
-3.20876e-21
0
9.40671e-23
1.69297e-21
0
-4.97394e-21
0
1.68572e-21
9.40674e-23
0
-3.17252e-21
9.40676e-23
3.25944e-21
3.25588e-21
0
-3.15471e-21
0
3.33577e-21
3.33225e-21
0
0
-3.03953e-21
-3.1301e-21
1.65738e-21
-3.31128e-21
0
6.3265e-21
1.65045e-21
-3.10932e-21
0
0
1.64358e-21
7.92716e-21
3.18627e-21
0
9.44437e-21
1.63508e-21
6.34543e-21
4.70699e-21
0
0
-1.53261e-21
1.26238e-20
3.15261e-21
0
-4.67191e-21
4.66694e-21
3.13934e-21
0
-6.17144e-21
0
1.61013e-21
9.36879e-21
0
0
0
3.10992e-21
7.62562e-21
-3.00939e-21
9.407e-23
-1.50148e-21
-3.09382e-21
0
0
4.76747e-21
0
9.40703e-23
0
0
9.40705e-23
2.9712e-21
9.40706e-23
0
0
6.01143e-21
-1.57185e-21
0
9.40709e-23
0
6.16858e-21
0
0
9.40711e-23
-1.88142e-22
3.02192e-21
2.9248e-21
-5.84351e-21
-2.91872e-21
0
9.40714e-23
-2.90965e-21
-5.81328e-21
2.99771e-21
0
2.99172e-21
0
0
9.40718e-23
-9.40718e-23
9.40718e-23
0
0
5.936e-21
0
-2.86806e-21
2.95921e-21
-9.40722e-23
9.40722e-23
2.8564e-21
0
-9.40723e-23
0
0
0
0
2.93028e-21
0
8.58556e-21
0
-2.8248e-21
2.91604e-21
-2.91321e-21
2.91038e-21
0
-2.7166e-21
-2.80786e-21
0
9.4073e-23
-2.79947e-21
9.40731e-23
2.88797e-21
-2.8852e-21
0
2.78559e-21
9.40733e-23
9.40734e-23
-2.77733e-21
0
2.86592e-21
9.40735e-23
2.95453e-21
0
0
-5.51648e-21
2.94368e-21
2.84691e-21
0
0
9.40739e-23
-5.3901e-21
2.83349e-21
0
-2.73408e-21
5.55692e-21
2.82284e-21
9.40742e-23
0
-8.44474e-21
2.81228e-21
2.80965e-21
2.90111e-21
0
0
0
1.88149e-22
0
0
0
2.78623e-21
2.68958e-21
0
5.55703e-21
-2.77595e-21
2.77339e-21
-5.25946e-21
-2.67422e-21
1.09689e-20
0
5.42728e-21
0
-8.1728e-21
5.50621e-21
0
2.74808e-21
0
5.298e-21
2.74058e-21
2.73809e-21
-2.54745e-21
0
-2.73065e-21
5.45635e-21
0
2.62917e-21
5.53565e-21
2.62426e-21
9.40757e-23
-2.71344e-21
0
9.40758e-23
0
-2.60963e-21
2.60721e-21
0
2.69645e-21
-2.59997e-21
2.69164e-21
-2.59517e-21
5.27962e-21
5.27484e-21
-7.95213e-21
2.67969e-21
0
-9.40763e-23
-2.48442e-21
0
2.66784e-21
0
-9.40765e-23
5.32158e-21
0
0
2.5597e-21
-5.30289e-21
-2.36689e-21
0
0
0
-5.27971e-21
5.2751e-21
-7.81167e-21
-2.53888e-21
2.72474e-21
0
-2.53201e-21
0
2.71561e-21
2.71334e-21
0
5.22946e-21
0
5.22043e-21
-2.51389e-21
2.51164e-21
5.20694e-21
-2.50715e-21
7.70291e-21
5.19353e-21
-5.00092e-21
0
2.49602e-21
2.68196e-21
-4.98318e-21
-5.16692e-21
-2.48718e-21
-2.48498e-21
1.88156e-22
5.14933e-21
-4.9568e-21
0
5.13623e-21
2.66001e-21
5.12753e-21
-2.46752e-21
4.9307e-21
-2.46319e-21
5.11022e-21
5.10591e-21
0
0
5.09303e-21
2.63845e-21
-2.44816e-21
0
-5.07596e-21
5.07171e-21
-2.2515e-21
-4.87508e-21
-2.43543e-21
-7.48811e-21
-2.43121e-21
2.61727e-21
2.42701e-21
0
1.88157e-22
9.87111e-21
-2.41865e-21
0
-2.4145e-21
-5.013e-21
5.00886e-21
0
-5.00061e-21
0
0
7.38833e-21
0
0
2.58208e-21
0
4.96785e-21
-2.38782e-21
0
-7.33945e-21
0
4.94761e-21
0
0
7.30924e-21
-2.37169e-21
2.36969e-21
-2.36769e-21
-2.55386e-21
-2.36371e-21
0
0
2.35776e-21
-7.2555e-21
-2.35381e-21
-1.44873e-20
0
7.23187e-21
4.88005e-21
1.8816e-22
0
-7.2084e-21
-2.33813e-21
-2.33619e-21
9.52515e-21
0
0
1.8816e-22
0
7.16193e-21
-2.32267e-21
0
7.14466e-21
2.31692e-21
-9.44821e-21
-2.31311e-21
0
7.11607e-21
-9.41778e-21
0
-2.30362e-21
0
0
4.59594e-21
-4.59218e-21
-2.48238e-21
2.29234e-21
0
6.86582e-21
7.0484e-21
4.75793e-21
0
-2.28117e-21
-1.88162e-22
0
-2.27563e-21
7.00953e-21
0
2.08195e-21
0
0
-4.71741e-21
6.97656e-21
-2.44914e-21
-4.51832e-21
0
-1.1654e-20
0
1.83917e-20
-4.50023e-21
0
-6.92771e-21
0
6.54062e-21
0
-4.4787e-21
-2.42573e-21
0
8.93604e-21
0
0
-4.64555e-21
0
-4.45032e-21
-2.41156e-21
6.85309e-21
-4.43977e-21
0
0
-6.83207e-21
0
-1.34551e-20
-2.20941e-21
0
9.01193e-21
0
-4.40497e-21
0
6.78527e-21
-1.35602e-20
-4.39119e-21
-2.38205e-21
2.19217e-21
-2.19046e-21
0
0
6.74421e-21
0
4.36391e-21
-2.36843e-21
0
0
-1.56027e-20
2.36168e-21
0
-4.34031e-21
4.33696e-21
-8.8554e-21
0
-4.51511e-21
-2.34997e-21
0
0
-4.31365e-21
-8.80885e-21
2.15352e-21
-4.30374e-21
0
-2.14858e-21
-1.54049e-20
0
-2.14366e-21
8.75627e-21
0
-6.79262e-21
-4.27427e-21
0
-4.26778e-21
-4.26454e-21
0
0
0
4.25163e-21
0
0
-2.30917e-21
-4.2388e-21
-1.30832e-20
0
6.53201e-21
8.4521e-21
-4.22287e-21
-1.28473e-20
0
-4.21337e-21
4.21022e-21
0
0
0
0
-1.88167e-22
0
-1.29411e-20
-4.18513e-21
4.18201e-21
1.27249e-20
0
-4.17269e-21
-4.1696e-21
0
-8.515e-21
-4.16034e-21
0
-1.26507e-20
-4.15111e-21
4.14805e-21
0
-4.14193e-21
-1.26048e-20
0
-1.88168e-22
0
0
-8.43556e-21
0
0
-4.11463e-21
4.11162e-21
-1.27022e-20
0
3.91445e-21
0
-4.09663e-21
-4.09365e-21
-4.09067e-21
-1.88169e-22
4.08472e-21
-4.08175e-21
-1.88169e-22
0
-4.07288e-21
4.06993e-21
-4.06698e-21
-1.27566e-20
0
0
-4.24341e-21
0
-1.23363e-20
0
0
4.04066e-21
8.07551e-21
-4.22302e-21
0
0
-8.24053e-21
-4.0233e-21
-4.20859e-21
0
0
8.02361e-21
0
-8.20034e-21
0
-8.00076e-21
-8.18324e-21
4.18286e-21
0
8.16621e-21
-3.98619e-21
-4.17153e-21
0
0
3.97491e-21
0
-4.34563e-21
0
0
-8.10997e-21
-4.14628e-21
-4.33166e-21
-3.95254e-21
0
-8.08214e-21
-3.94421e-21
8.07107e-21
0
-3.93593e-21
-4.12134e-21
3.93042e-21
3.7395e-21
0
0
-4.10762e-21
0
0
-4.28761e-21
3.90854e-21
-3.90583e-21
3.90311e-21
0
-1.88172e-22
-4.27134e-21
0
-3.8896e-21
0
-1.88172e-22
-3.88154e-21
-1.18248e-20
0
0
-4.05902e-21
-3.86818e-21
7.91921e-21
0
0
-4.04573e-21
0
-1.55972e-20
-3.84963e-21
0
3.65619e-21
0
0
-1.16976e-20
0
-1.88172e-22
0
0
-1.18466e-20
0
1.92793e-20
-3.81564e-21
0
-7.80911e-21
0
-1.88173e-22
0
0
0
0
3.79246e-21
0
-3.78735e-21
-7.75777e-21
0
-7.74759e-21
0
0
-7.92053e-21
0
-7.72224e-21
-3.76451e-21
0
-3.94765e-21
0
-3.75445e-21
-7.69206e-21
0
-1.88174e-22
0
3.74195e-21
-1.53342e-20
0
-1.13916e-20
7.65218e-21
0
-1.15575e-20
3.72458e-21
-3.91029e-21
0
0
-1.15205e-20
-2.265e-20
3.70983e-21
0
0
3.70249e-21
0
-7.58341e-21
0
-3.69276e-21
-1.14474e-20
-3.68791e-21
0
-7.55433e-21
-3.68066e-21
-1.88175e-22
0
0
-1.12013e-20
3.66865e-21
3.66625e-21
3.66386e-21
-3.66147e-21
-1.88175e-22
0
-1.88175e-22
-3.65196e-21
0
3.64721e-21
0
7.28497e-21
-7.28025e-21
0
-1.10944e-20
7.26613e-21
3.63072e-21
0
3.62603e-21
0
-3.62136e-21
0
-1.14146e-20
-3.61437e-21
-1.10243e-20
3.60972e-21
0
7.21018e-21
0
-1.45901e-20
0
0
-7.3753e-21
-1.11501e-20
-3.77715e-21
3.77486e-21
0
-1.88176e-22
-3.57982e-21
-3.76572e-21
0
0
-3.7589e-21
0
-1.08867e-20
-3.56393e-21
0
-1.88177e-22
0
0
-1.81397e-20
0
-3.92453e-21
1.88177e-22
-3.5437e-21
-7.27111e-21
0
-3.91336e-21
-3.53478e-21
0
-7.24885e-21
0
-7.23999e-21
0
3.52149e-21
-7.22674e-21
0
-3.70306e-21
0
-7.02097e-21
-7.20477e-21
0
-3.6921e-21
7.00347e-21
-3.49955e-21
-1.08685e-20
0
3.49303e-21
-7.16989e-21
0
-3.48652e-21
0
-3.4822e-21
-3.48005e-21
0
-1.40911e-20
0
3.47144e-21
-7.12678e-21
0
0
0
0
-1.42108e-20
0
-7.09692e-21
0
0
-2.10644e-20
-3.4459e-21
-3.44378e-21
0
7.06731e-21
-7.25128e-21
0
-3.76357e-22
0
0
-1.40843e-20
-1.04629e-20
0
6.84144e-21
3.41864e-21
-3.60474e-21
0
0
-1.04192e-20
1.36331e-20
6.81241e-21
0
0
-1.03882e-20
-3.39796e-21
-7.16818e-21
0
0
-2.09031e-20
0
-3.57386e-21
0
0
-6.94732e-21
3.56572e-21
3.18733e-21
0
3.37146e-21
-3.55761e-21
0
-2.07569e-20
1.36417e-20
1.02723e-20
3.17118e-21
0
3.35535e-21
-1.75195e-20
0
0
2.06487e-20
0
-1.8818e-22
0
1.35458e-20
0
3.33543e-21
3.14527e-21
1.70337e-20
3.14132e-21
0
1.01649e-20
3.13541e-21
3.50981e-21
6.45115e-21
0
0
-3.50197e-21
3.31184e-21
0
-6.80406e-21
-3.30599e-21
-3.49223e-21
-1.00945e-20
0
-3.48641e-21
-6.78077e-21
6.40054e-21
0
3.47868e-21
-1.33425e-20
0
-1.88181e-22
3.47099e-21
0
3.0908e-21
0
-6.7385e-21
-3.27325e-21
0
0
0
-3.45382e-21
0
0
-3.44814e-21
0
0
-3.44247e-21
-3.44059e-21
1.6629e-20
1.66196e-20
-3.24677e-21
-1.33559e-20
0
-1.88181e-22
0
1.98009e-20
-3.42373e-21
0
-1.63473e-20
3.22997e-21
0
-1.88182e-22
0
-3.76363e-22
0
0
-1.88182e-22
-3.21518e-21
-1.30416e-20
0
6.60753e-21
-1.64156e-20
0
0
-6.59289e-21
0
1.61817e-20
0
9.7734e-21
-3.38144e-21
3.19144e-21
-6.56744e-21
3.376e-21
0
-1.2925e-20
0
1.60912e-20
-6.3576e-21
0
-3.36339e-21
9.70843e-21
-3.35981e-21
0
6.52428e-21
-6.52071e-21
3.16448e-21
-6.51358e-21
3.3491e-21
0
-3.34555e-21
0
0
0
0
9.63374e-21
1.29634e-20
0
-1.88183e-22
1.94134e-20
-1.31234e-20
1.92042e-20
0
-1.88183e-22
0
9.58111e-21
0
0
-3.31393e-21
-6.24802e-21
1.26773e-20
1.28585e-20
9.35642e-21
1.57736e-20
0
-3.11362e-21
0
0
-3.29664e-21
2.54184e-20
9.12688e-21
9.4981e-21
0
-6.38794e-21
0
3.09646e-21
6.3777e-21
0
-1.88184e-22
-3.08965e-21
6.55228e-21
-9.82333e-21
-1.88184e-22
6.16574e-21
9.43173e-21
3.07949e-21
-3.26599e-21
3.07612e-21
-1.88184e-22
0
0
-6.32698e-21
0
-3.25423e-21
0
1.88184e-22
6.31026e-21
3.05937e-21
1.2419e-20
0
0
-1.88184e-22
0
3.23759e-21
-9.51963e-21
9.51467e-21
-9.32154e-21
0
0
-1.88184e-22
0
-3.22441e-21
0
1.57293e-20
-1.88184e-22
-1.85544e-20
-1.85446e-20
-6.05282e-21
1.85251e-20
2.83497e-21
-3.02153e-21
-1.26442e-20
-1.20731e-20
0
-3.20323e-21
-3.01343e-21
-6.21181e-21
0
0
-6.20214e-21
-1.88185e-22
0
-6.19249e-21
1.83797e-20
-6.18609e-21
0
0
-1.88185e-22
1.19702e-20
-9.16109e-21
0
9.15155e-21
-1.81054e-20
0
-3.17121e-21
9.13252e-21
0
3.16647e-21
9.1183e-21
5.76207e-21
0
0
0
0
-6.12273e-21
0
1.20448e-20
-1.88185e-22
1.51815e-20
0
5.72762e-21
0
-6.09777e-21
1.51426e-20
0
-1.88186e-22
1.88186e-22
1.80586e-20
1.19702e-20
1.17758e-20
1.15815e-20
0
-1.19455e-20
0
-1.21214e-20
-6.05764e-21
0
1.79664e-20
0
0
-1.88186e-22
0
-1.18843e-20
0
0
-1.88186e-22
-5.83592e-21
-6.02108e-21
0
0
1.18358e-20
0
0
-1.76325e-20
1.18117e-20
5.62058e-21
-1.16115e-20
0
-1.19759e-20
-5.79678e-21
-1.88186e-22
0
0
-5.97303e-21
5.97006e-21
5.7789e-21
5.96411e-21
-5.77296e-21
-5.95818e-21
0
-1.88187e-22
0
-5.75817e-21
-1.16986e-20
1.88187e-22
5.56114e-21
0
0
1.12929e-20
0
-1.88187e-22
-1.88187e-22
0
-5.91408e-21
0
1.73484e-20
5.71715e-21
0
-1.16109e-20
0
0
-5.89083e-21
0
-5.88505e-21
1.17643e-20
0
-1.17528e-20
5.87352e-21
-5.87065e-21
0
0
-5.86204e-21
-5.67099e-21
-5.85632e-21
0
0
-5.84775e-21
0
-1.14959e-20
-5.83921e-21
5.64819e-21
-1.18553e-20
-6.01889e-21
0
5.44867e-21
5.82221e-21
-5.81939e-21
0
5.81375e-21
-5.81094e-21
0
-5.80532e-21
0
0
-5.79691e-21
-5.60592e-21
-5.79131e-21
0
0
-5.78294e-21
0
-1.88188e-22
0
-1.71273e-20
0
1.11562e-20
0
-5.76075e-21
5.75799e-21
-5.75523e-21
5.56428e-21
0
-1.88188e-22
0
-5.74147e-21
0
0
-5.73325e-21
0
-1.12674e-20
0
1.69788e-20
5.53141e-21
2.26793e-20
-5.52597e-21
0
0
-1.88188e-22
0
-5.70061e-21
0
5.88339e-21
-5.69251e-21
-5.50162e-21
0
-5.68443e-21
0
5.30268e-21
0
1.68329e-20
0
0
1.66207e-20
1.6989e-20
0
-2.22543e-20
-5.65502e-21
-5.65236e-21
0
5.45886e-21
1.88189e-22
0
-1.88189e-22
0
5.63382e-21
-1.88189e-22
-1.66975e-20
-1.88189e-22
5.62329e-21
-5.43247e-21
-5.61804e-21
0
-1.88189e-22
0
0
-1.10217e-20
1.08283e-20
1.08231e-20
5.59713e-21
1.10009e-20
-1.09957e-20
0
5.39854e-21
-5.58414e-21
-5.39336e-21
-1.67369e-20
0
0
-1.11424e-20
0
-1.8819e-22
0
0
-1.11167e-20
0
-1.8819e-22
0
0
-5.54555e-21
5.543e-21
-1.08927e-20
1.10758e-20
1.10707e-20
-1.12538e-20
0
0
-1.10504e-20
5.33447e-21
-1.8819e-22
5.32941e-21
1.6357e-20
5.32436e-21
1.8819e-22
1.08268e-20
1.63268e-20
0
0
5.49746e-21
5.49495e-21
1.09849e-20
0
-1.8819e-22
0
-5.67064e-21
0
0
-2.17117e-20
0
-5.47001e-21
-5.46753e-21
-5.27686e-21
5.46257e-21
1.60039e-20
-1.8819e-22
-1.8819e-22
1.8819e-22
-1.07123e-20
-5.44776e-21
1.07024e-20
-3.76381e-22
0
-1.8819e-22
0
-2.15439e-20
5.0542e-21
0
-5.4257e-21
0
-5.23263e-21
-1.88191e-22
0
-5.41352e-21
0
-1.60378e-20
-5.40624e-21
-5.40382e-21
-2.64424e-20
-5.58717e-21
2.12099e-20
-1.88191e-22
-5.20355e-21
-5.20114e-21
2.09831e-20
-1.0769e-20
-1.88191e-22
0
0
-1.05617e-20
0
1.53577e-20
0
1.60961e-20
-1.0726e-20
0
4.98184e-21
0
0
-1.0514e-20
-1.03211e-20
4.96998e-21
0
0
-1.88191e-22
-1.02974e-20
2.09618e-20
0
5.32984e-21
-1.88191e-22
0
0
0
0
5.12757e-21
0
2.0868e-20
5.12056e-21
5.11823e-21
0
1.57171e-20
0
0
1.56962e-20
5.10428e-21
0
0
-1.09474e-20
0
-1.56545e-20
-5.0904e-21
1.05526e-20
-2.07196e-20
0
-5.45758e-21
0
0
5.07431e-21
1.55925e-20
-1.05159e-20
1.55787e-20
5.06516e-21
-1.5565e-20
0
0
0
2.05915e-20
-3.76384e-22
5.04923e-21
0
5.0447e-21
0
0
0
-1.54834e-20
0
0
-1.04342e-20
0
0
0
1.54361e-20
5.01767e-21
-5.01543e-21
0
-2.58075e-20
0
-1.53959e-20
0
-5.00203e-21
-5.37619e-21
4.99758e-21
0
-5.36953e-21
-1.53492e-20
-1.53425e-20
1.03494e-20
2.03135e-20
-1.03405e-20
0
4.97766e-21
0
0
-5.34744e-21
1.5283e-20
-2.52097e-20
-1.52698e-20
0
-3.76385e-22
0
-5.33209e-21
0
0
-5.32554e-21
2.01643e-20
9.88961e-21
-2.54659e-20
2.5455e-20
4.5619e-21
0
-1.51782e-20
9.86356e-21
0
4.92746e-21
-1.0227e-20
0
-1.51393e-20
1.0214e-20
4.91668e-21
0
0
0
0
0
0
0
-1.5075e-20
0
-1.01669e-20
0
0
-1.5043e-20
0
-3.76386e-22
0
0
-1.01329e-20
0
0
-2.47359e-20
-1.0116e-20
-1.01118e-20
0
9.72696e-21
-1.00991e-20
0
-4.85717e-21
5.23146e-21
1.00823e-20
-3.99362e-20
-4.84879e-21
-1.49165e-20
4.84461e-21
0
2.9419e-20
0
-1.48852e-20
0
1.00406e-20
-1.48665e-20
0
-1.00282e-20
0
1.96633e-20
-3.76387e-22
1.96468e-20
-4.81554e-21
1.96303e-20
0
-1.96138e-20
0
0
0
0
0
4.79704e-21
0
4.79295e-21
1.47491e-20
-9.95411e-21
9.95003e-21
0
-9.94188e-21
0
-3.76388e-22
-4.77665e-21
9.92563e-21
4.77259e-21
0
-3.41326e-20
0
0
-1.46638e-20
1.94182e-20
-4.75844e-21
0
-9.50884e-21
-9.8812e-21
9.5008e-21
0
9.49277e-21
1.93539e-20
-9.86115e-21
0
9.85315e-21
9.47276e-21
0
-1.45736e-20
5.10679e-21
0
9.45284e-21
0
4.72245e-21
0
0
-5.09289e-21
0
4.71255e-21
9.79753e-21
0
-1.95793e-20
0
-1.44844e-20
1.44785e-20
0
-5.07318e-21
0
9.76212e-21
-4.69091e-21
-3.76389e-22
-3.76389e-22
0
4.68309e-21
5.05753e-21
3.35071e-20
-3.76389e-22
0
0
-4.27954e-20
0
4.66752e-21
-9.70756e-21
1.9031e-20
0
1.90155e-20
-5.03424e-21
0
0
-1.9361e-20
0
-3.7639e-22
0
0
-2.35887e-20
4.64054e-21
0
-9.64981e-21
9.64598e-21
-1.89079e-20
-4.63098e-21
9.25814e-21
9.25433e-21
4.62526e-21
-9.24671e-21
0
0
-1.42294e-20
-4.61576e-21
-1.92082e-20
0
0
-4.98458e-21
1.41953e-20
1.41896e-20
0
1.41783e-20
-9.57391e-21
4.22049e-21
0
-9.18624e-21
0
0
-1.87264e-20
0
-1.87114e-20
-9.54016e-21
0
0
1.41052e-20
0
-1.86666e-20
0
0
0
-1.40718e-20
0
0
0
-1.40496e-20
2.35322e-20
9.10806e-21
4.55218e-21
1.40274e-20
0
0
0
-9.46236e-21
4.54115e-21
1.39943e-20
-1.36124e-20
1.39833e-20
0
-9.06398e-21
0
0
0
-9.04938e-21
0
-2.29816e-20
4.51923e-21
0
3.68776e-20
-4.51378e-21
0
0
0
0
9.00947e-21
1.83881e-20
9.37865e-21
-8.99865e-21
0
9.36784e-21
0
-4.49213e-21
1.38474e-20
-9.35348e-21
0
-9.34631e-21
8.96634e-21
0
0
0
0
0
2.72112e-20
0
1.37831e-20
0
0
8.92716e-21
0
-8.92008e-21
0
0
1.37406e-20
0
0
0
0
-4.44592e-21
-1.37089e-20
-4.44241e-21
0
-8.87779e-21
0
1.36826e-20
-8.86728e-21
0
0
0
1.328e-20
0
-8.84634e-21
0
0
0
0
8.82897e-21
8.8255e-21
-8.82203e-21
0
-8.81511e-21
0
0
-4.40238e-21
4.77705e-21
0
0
0
-4.77016e-21
1.35526e-20
0
0
8.77382e-21
0
1.79103e-20
0
0
0
0
-1.35013e-20
0
1.3491e-20
-8.7397e-21
-8.7363e-21
0
0
-9.10252e-21
8.72274e-21
0
0
0
0
-8.70584e-21
-4.35124e-21
0
0
0
0
0
0
-4.33947e-21
8.6756e-21
8.67225e-21
-8.6689e-21
0
-8.66222e-21
3.53883e-20
0
0
-1.76742e-20
2.23667e-20
8.64224e-21
-1.33348e-20
0
0
0
0
0
0
0
0
4.30456e-21
0
0
-2.18745e-20
0
0
8.58939e-21
-4.66945e-21
0
-8.57955e-21
0
0
-4.28487e-21
0
0
-8.55994e-21
0
1.32065e-20
4.27509e-21
1.74702e-20
0
-4.64661e-21
8.53718e-21
-1.31773e-20
0
-8.90386e-21
1.31627e-20
2.63158e-20
8.51777e-21
0
0
0
0
0
1.73733e-20
-8.49523e-21
1.73604e-20
0
-8.48561e-21
0
0
-8.47601e-21
0
8.46962e-21
0
0
0
0
0
9.2033e-21
0
0
0
0
0
-4.59214e-21
0
1.72267e-20
8.79841e-21
0
4.20785e-21
0
0
-2.55952e-20
0
0
-8.39684e-21
0
-1.29622e-20
0
0
-8.38118e-21
0
8.37493e-21
0
2.54825e-20
-2.12903e-20
8.36247e-21
-1.29154e-20
1.70889e-20
-1.29061e-20
0
1.28968e-20
-1.70641e-20
-8.34074e-21
0
-8.33456e-21
0
0
-8.32529e-21
0
1.73911e-20
0
1.70024e-20
8.6863e-21
8.30683e-21
0
0
-8.67403e-21
1.69655e-20
0
1.69533e-20
8.28539e-21
-8.28234e-21
0
0
-8.27319e-21
8.27015e-21
0
-8.26407e-21
0
0
8.25496e-21
0
0
0
0
-1.68561e-20
-1.685e-20
3.40644e-20
8.23078e-21
1.68319e-20
0
0
0
1.68079e-20
0
0
0
2.49876e-20
0
3.35438e-20
0
0
0
-1.6748e-20
0
0
0
-1.67242e-20
0
0
0
0
0
0
0
-1.66768e-20
0
2.48092e-20
3.33181e-20
-3.33063e-20
-1.66473e-20
0
0
0
1.66237e-20
-8.12073e-21
0
0
-1.62239e-20
0
0
-8.10317e-21
-8.10025e-21
8.09733e-21
8.47081e-21
8.0915e-21
0
8.08567e-21
1.65419e-20
0
0
0
-1.65187e-20
-8.06826e-21
0
-3.30027e-20
-8.05958e-21
1.64898e-20
0
-8.05092e-21
0
0
0
0
0
0
-8.03078e-21
1.64322e-20
0
0
0
8.01646e-21
0
2.4785e-20
2.47765e-20
8.00503e-21
8.00218e-21
0
-7.99649e-21
0
0
1.63523e-20
0
0
0
0
0
-2.42893e-20
0
-7.96531e-21
2.42639e-20
1.62957e-20
0
0
7.95122e-21
2.4598e-20
0
7.94279e-21
1.62564e-20
0
0
1.62396e-20
1.6234e-20
-8.30239e-21
0
-7.9204e-21
-7.91761e-21
0
-7.91203e-21
0
0
-7.90369e-21
0
-3.764e-22
0
0
0
0
-7.88428e-21
0
0
0
0
0
-7.86772e-21
8.24136e-21
7.86221e-21
0
8.23312e-21
0
0
3.76401e-22
0
-7.84301e-21
-7.84027e-21
0
0
0
1.60351e-20
-1.6406e-20
2.38481e-20
2.42163e-20
0
-1.60079e-20
0
-1.5997e-20
0
-3.76401e-22
1.59807e-20
7.79946e-21
0
1.59645e-20
-2.41268e-20
0
1.59483e-20
0
0
-3.76401e-22
2.40783e-20
0
0
1.6287e-20
0
8.13815e-21
0
0
0
7.75104e-21
1.58731e-20
1.54914e-20
0
-7.74036e-21
-7.73769e-21
0
0
-1.54594e-20
-7.72705e-21
0
0
0
1.58093e-20
-7.71379e-21
-3.15974e-20
0
0
0
7.70058e-21
3.76402e-22
0
0
-7.69004e-21
0
0
0
-1.57355e-20
1.57302e-20
0
8.04806e-21
1.57145e-20
0
-1.5704e-20
0
-7.65859e-21
0
-7.65337e-21
3.13559e-20
1.56727e-20
8.02197e-21
1.56623e-20
0
0
-7.63517e-21
7.63258e-21
0
0
8.00121e-21
0
0
0
0
0
0
-7.60675e-21
-1.55847e-20
-7.6016e-21
-1.55745e-20
0
0
-3.07417e-20
-3.76403e-22
-1.51724e-20
0
-7.95749e-21
0
0
-7.57342e-21
0
-2.30814e-20
-7.56577e-21
0
-2.30585e-20
3.09854e-20
0
0
0
-1.54724e-20
0
0
-7.54039e-21
0
0
2.29748e-20
-1.5437e-20
-1.50555e-20
7.90164e-21
2.29446e-20
-1.54168e-20
0
0
2.29144e-20
-1.53967e-20
7.88405e-21
0
1.53817e-20
-1.53767e-20
-2.32457e-20
0
3.76403e-22
0
-2.32157e-20
2.28318e-20
0
-7.85656e-21
-3.81411e-20
-7.85158e-21
1.53218e-20
1.49404e-20
-2.3156e-20
7.84165e-21
0
0
-1.5292e-20
7.45534e-21
0
-1.52772e-20
-7.44793e-21
7.44546e-21
0
0
0
1.48712e-20
0
-7.8071e-21
7.42824e-21
0
2.26464e-20
0
0
0
0
-7.41109e-21
0
-7.78261e-21
0
0
0
0
0
-7.39159e-21
0
0
0
0
-7.37946e-21
-1.51305e-20
0
0
0
0
7.36495e-21
0
0
0
0
0
0
-7.34809e-21
0
7.34329e-21
0
0
-3.00972e-20
-2.23775e-20
0
0
-7.70294e-21
7.32414e-21
1.50199e-20
2.23345e-20
0
7.69101e-21
0
0
0
0
7.67913e-21
0
0
-7.29561e-21
0
-1.45818e-20
-1.4577e-20
0
0
7.28143e-21
-7.27907e-21
7.27671e-21
0
1.49204e-20
0
0
0
7.63901e-21
-7.26026e-21
0
1.48875e-20
0
0
7.62496e-21
-1.48688e-20
-3.69722e-20
0
0
0
0
0
0
-1.48315e-20
-2.20521e-20
0
3.64794e-20
-2.24077e-20
0
7.59006e-21
1.47991e-20
-7.58543e-21
-1.47898e-20
0
0
-2.9552e-20
-1.47714e-20
-7.19518e-21
3.67172e-20
7.19057e-21
0
2.98731e-20
0
-1.47392e-20
-2.19137e-20
0
0
0
0
1.47117e-20
2.18725e-20
-7.16307e-21
7.16079e-21
-7.15851e-21
0
-7.53036e-21
-2.18314e-20
-1.42988e-20
0
-1.46661e-20
0
0
0
0
0
0
-7.12899e-21
-3.67629e-20
-1.42489e-20
7.49862e-21
0
-7.1177e-21
-2.17227e-20
0
0
-2.17025e-20
7.10645e-21
7.4806e-21
3.76406e-22
-2.16755e-20
0
7.09523e-21
0
7.46716e-21
0
2.16352e-20
0
1.41636e-20
0
0
0
-7.4493e-21
-1.45178e-20
0
1.41325e-20
7.44041e-21
-7.06179e-21
7.43597e-21
1.44911e-20
0
0
0
7.0485e-21
0
7.04408e-21
1.48366e-20
0
0
7.41166e-21
-7.03306e-21
0
-1.44337e-20
7.02646e-21
0
7.02207e-21
-7.01988e-21
0
0
3.76407e-22
2.14098e-20
0
0
7.00456e-21
0
7.0002e-21
-6.99802e-21
0
0
-6.99149e-21
0
0
0
0
-6.98063e-21
-1.43333e-20
-6.97629e-21
-2.12988e-20
0
2.12858e-20
0
0
0
-6.96117e-21
0
0
0
0
7.32681e-21
0
0
0
0
0
0
0
1.42429e-20
-7.30752e-21
-1.42344e-20
1.42301e-20
-6.92471e-21
-2.11441e-20
-2.15141e-20
0
1.42088e-20
-7.29046e-21
-3.53125e-20
0
0
-3.52806e-20
-4.94533e-20
2.10804e-20
2.83496e-20
-3.52382e-20
-2.83327e-20
7.26926e-21
3.76408e-22
-1.41537e-20
0
-6.50799e-21
0
-1.37604e-20
1.37562e-20
-1.41284e-20
0
0
0
0
1.41074e-20
0
0
6.85919e-21
2.13241e-20
0
0
0
7.22515e-21
-1.40697e-20
0
0
-1.40572e-20
-3.49444e-20
-1.40489e-20
-6.83416e-21
1.40406e-20
-1.40364e-20
-2.08602e-20
2.12304e-20
2.08478e-20
-3.48614e-20
-2.08353e-20
0
3.76408e-22
0
-1.39992e-20
2.79901e-20
2.07982e-20
-2.0792e-20
-3.47685e-20
0
0
-2.07673e-20
-3.47273e-20
3.76409e-22
1.3958e-20
-1.35775e-20
-2.07365e-20
-2.07303e-20
0
0
0
6.77646e-21
-1.35488e-20
-6.77238e-21
-6.77034e-21
0
0
0
0
-7.13656e-21
2.02744e-20
0
-2.06386e-20
0
6.75e-21
-2.06203e-20
1.34919e-20
-6.74393e-21
1.38602e-20
2.77123e-20
7.11427e-21
7.11225e-21
2.76881e-20
7.10821e-21
0
-6.72777e-21
-2.01773e-20
0
0
0
6.71772e-21
-7.09212e-21
0
0
-6.7097e-21
2.75836e-20
-6.70569e-21
0
-2.75596e-20
7.07611e-21
7.07411e-21
1.37678e-20
0
0
1.33795e-20
0
0
0
-4.79016e-20
-6.67978e-21
0
0
0
0
-6.66987e-21
7.0443e-21
3.40824e-20
1.99918e-20
0
0
-6.65802e-21
0
6.65407e-21
0
0
0
-6.6462e-21
0
0
-1.3657e-20
-1.32767e-20
1.32728e-20
-1.32689e-20
-1.36414e-20
-1.3261e-20
1.40099e-20
0
-2.02504e-20
0
1.36179e-20
-2.68516e-20
-3.38371e-20
0
-6.61296e-21
-2.02094e-20
2.02036e-20
0
4.03839e-20
-1.35829e-20
-2.01803e-20
0
4.07138e-20
-1.35674e-20
-6.59356e-21
0
2.01455e-20
-1.35519e-20
-1.35481e-20
0
0
-1.31601e-20
-1.35326e-20
3.7641e-22
0
-2.00934e-20
-3.36049e-20
0
0
0
0
0
1.34942e-20
-2.04238e-20
-5.357e-20
-6.55318e-21
0
-6.92577e-21
0
2.0013e-20
0
-2.00016e-20
-1.99959e-20
6.91434e-21
0
-1.99788e-20
-2.68817e-20
1.9591e-20
6.52843e-21
-4.6815e-20
-6.90105e-21
1.34219e-20
3.76411e-22
0
0
0
2.6806e-20
-3.36863e-20
-3.33004e-20
0
4.62931e-20
-6.50387e-21
-4.62668e-20
0
-6.49823e-21
0
-1.33654e-20
0
-1.33579e-20
0
-6.86339e-21
-6.48511e-21
6.48323e-21
1.33391e-20
6.4795e-21
0
6.47576e-21
0
1.97925e-20
0
1.97813e-20
-6.46645e-21
0
-6.46273e-21
0
-2.01299e-20
0
2.01187e-20
-2.6943e-20
-1.3656e-20
0
2.65444e-20
0
2.65296e-20
0
0
0
3.33133e-20
2.64927e-20
0
0
-2.64706e-20
0
0
0
0
0
-1.32133e-20
0
0
-3.28175e-20
0
0
6.40745e-21
0
0
0
0
-1.27967e-20
0
1.27894e-20
0
0
0
0
0
-3.90556e-20
0
-6.38017e-21
-6.37835e-21
-3.90121e-20
6.37474e-21
0
0
-4.57144e-20
0
0
2.62084e-20
0
0
0
0
-5.19685e-20
-1.94357e-20
0
1.30755e-20
0
-1.94142e-20
0
0
6.34056e-21
0
0
0
-1.93767e-20
0
-6.32985e-21
0
0
0
3.90656e-20
1.93393e-20
-2.60295e-20
0
0
0
0
0
2.59869e-20
0
0
-6.30322e-21
1.29793e-20
0
-1.29723e-20
0
0
0
-3.18308e-20
1.25782e-20
0
-6.28559e-21
-3.2172e-20
1.25642e-20
1.29371e-20
0
6.27681e-21
-1.92016e-20
-6.27331e-21
0
0
-1.25361e-20
-6.64273e-21
0
1.29021e-20
-4.45804e-20
0
0
-1.28881e-20