/*--------------------------------*- C++ -*----------------------------------*\
| =========                 |                                                 |
| \\      /  F ield         | OpenFOAM: The Open Source CFD Toolbox           |
|  \\    /   O peration     | Version:  2206                                  |
|   \\  /    A nd           | Website:  www.openfoam.com                      |
|    \\/     M anipulation  |                                                 |
\*---------------------------------------------------------------------------*/
FoamFile
{
    version     2.0;
    format      ascii;
    arch        "LSB;label=32;scalar=64";
    class       volVectorField;
    location    "0";
    object      U;
}
// * * * * * * * * * * * * * * * * * * * * * * * * * * * * * * * * * * * * * //

dimensions      [0 1 -1 0 0 0 0];

internalField   uniform (0 0 0);

boundaryField
{
    top
    {
        type            navierSlip;
        wallVelocity    nonuniform List<vector> 
1000
(
(0 0.000268034 0)
(0 0.000625412 0)
(4.43492e-23 0.00101853 -0)
(-4.7517e-23 0.00141675 0)
(9.85539e-23 0.00181667 -0)
(0 0.00221737 0)
(7.86701e-22 0.00261848 -0)
(0 0.00301985 0)
(-2.92814e-21 0.00342137 0)
(0 0.00382301 0)
(2.20145e-21 0.00422472 -0)
(2.01002e-21 0.00462649 -0)
(2.12876e-22 0.00502831 -0)
(0 0.00543016 0)
(4.28199e-22 0.00583204 -0)
(-4.29186e-22 0.00623394 0)
(4.30053e-22 0.00663586 -0)
(-2.64174e-21 0.0070378 0)
(2.06743e-21 0.00743974 -0)
(4.32121e-22 0.0078417 -0)
(4.07761e-21 0.00824367 -0)
(4.33179e-22 0.00864564 -0)
(-4.33637e-22 0.00904762 0)
(4.36856e-21 0.00944961 -0)
(-3.77391e-21 0.0098516 0)
(-4.34796e-22 0.0102536 0)
(4.35125e-22 0.0106556 -0)
(-7.15985e-21 0.0110576 0)
(-7.3599e-21 0.0114596 0)
(1.25371e-20 0.0118616 -0)
(8.72444e-22 0.0122636 -0)
(5.87052e-21 0.0126657 -0)
(-6.56323e-21 0.0130677 0)
(1.10401e-20 0.0134697 -0)
(8.7413e-22 0.0138717 -0)
(-6.08355e-21 0.0142737 0)
(5.06634e-21 0.0146758 -0)
(-8.98732e-21 0.0150778 0)
(0 0.0154798 0)
(-8.75757e-22 0.0158818 0)
(9.13193e-21 0.0162839 -0)
(8.76298e-22 0.0166859 -0)
(-9.57874e-21 0.0170879 0)
(8.50214e-21 0.01749 -0)
(8.77019e-22 0.017892 -0)
(0 0.018294 0)
(-8.83106e-21 0.0186961 0)
(7.78617e-21 0.0190981 -0)
(8.7784e-22 0.0195001 -0)
(-8.3496e-21 0.0199022 0)
(0 0.0203042 0)
(8.78373e-22 0.0207062 -0)
(0 0.0211083 0)
(-8.78695e-22 0.0215103 0)
(8.78847e-22 0.0219124 -0)
(1.75799e-21 0.0223144 -0)
(-1.48501e-20 0.0227164 0)
(0 0.0231185 0)
(1.75881e-21 0.0235205 -0)
(-1.41908e-20 0.0239226 0)
(-1.04669e-20 0.0243246 0)
(0 0.0247266 0)
(-1.75978e-21 0.0251287 0)
(1.34086e-20 0.0255307 -0)
(-1.1468e-20 0.0259328 0)
(-1.76043e-21 0.0263348 0)
(1.28837e-20 0.0267369 -0)
(-1.76083e-21 0.0271389 0)
(-2.15967e-20 0.0275409 0)
(2.30471e-20 0.027943 -0)
(-1.76139e-21 0.028345 0)
(-2.06905e-20 0.0287471 0)
(2.21669e-20 0.0291491 -0)
(-1.7619e-21 0.0295512 0)
(1.76206e-21 0.0299532 -0)
(0 0.0303553 0)
(-1.76237e-21 0.0307573 0)
(1.76252e-21 0.0311593 -0)
(0 0.0315614 0)
(-1.76281e-21 0.0319634 0)
(2.01402e-20 0.0323655 -0)
(-1.76309e-21 0.0327675 0)
(0 0.0331696 0)
(1.94804e-20 0.0335716 -0)
(-1.76347e-21 0.0339737 0)
(-1.73026e-20 0.0343757 0)
(1.88663e-20 0.0347777 -0)
(-1.76383e-21 0.0351798 0)
(1.76395e-21 0.0355818 -0)
(0 0.0359839 0)
(-1.76417e-21 0.0363859 0)
(1.76428e-21 0.036788 -0)
(-1.59932e-20 0.03719 0)
(-1.76448e-21 0.0375921 0)
(1.76458e-21 0.0379941 -0)
(-1.76468e-21 0.0383962 0)
(0 0.0387982 0)
(1.69379e-20 0.0392003 -0)
(-1.76496e-21 0.0396023 0)
(0 0.0400044 0)
(1.64853e-20 0.0404064 -0)
(-1.76523e-21 0.0408084 0)
(1.76532e-21 0.0412105 -0)
(0 0.0416125 0)
(-3.00788e-20 0.0420146 0)
(1.76556e-21 0.0424166 -0)
(0 0.0428187 0)
(-1.76572e-21 0.0432207 0)
(-2.55037e-20 0.0436228 0)
(0 0.0440248 0)
(3.03079e-20 0.0444269 -0)
(0 0.0448289 0)
(0 0.045231 0)
(-3.53231e-21 0.045633 0)
(0 0.0460351 0)
(0 0.0464371 0)
(2.89297e-20 0.0468392 -0)
(0 0.0472412 0)
(0 0.0476433 0)
(-3.53309e-21 0.0480453 0)
(0 0.0484474 0)
(3.53334e-21 0.0488494 -0)
(2.4153e-20 0.0492515 -0)
(0 0.0496535 0)
(-3.53369e-21 0.0500555 0)
(0 0.0504576 0)
(2.33893e-20 0.0508596 -0)
(3.53403e-21 0.0512617 -0)
(0 0.0516637 0)
(2.28474e-20 0.0520658 -0)
(-3.53435e-21 0.0524678 0)
(4.49999e-20 0.0528699 -0)
(0 0.0532719 0)
(-1.86282e-20 0.053674 0)
(2.19981e-20 0.054076 -0)
(-3.53485e-21 0.0544781 0)
(2.16758e-20 0.0548801 -0)
(2.15181e-20 0.0552822 -0)
(-3.91904e-20 0.0556842 0)
(2.12096e-20 0.0560863 -0)
(0 0.0564883 0)
(-3.5354e-21 0.0568904 0)
(0 0.0572924 0)
(2.06184e-20 0.0576945 -0)
(3.53566e-21 0.0580965 -0)
(2.0335e-20 0.0584986 -0)
(2.01962e-20 0.0589006 -0)
(-3.53591e-21 0.0593027 0)
(1.99242e-20 0.0597047 -0)
(-3.60458e-20 0.0601068 0)
(0 0.0605088 0)
(0 0.0609109 0)
(-3.53631e-21 0.0613129 0)
(0 0.061715 0)
(3.83009e-20 0.062117 -0)
(-3.45181e-20 0.0625191 0)
(0 0.0629211 0)
(0 0.0633232 0)
(-3.53675e-21 0.0637252 0)
(0 0.0641273 0)
(0 0.0645293 0)
(3.53695e-21 0.0649314 -0)
(3.64153e-20 0.0653334 -0)
(-3.53709e-21 0.0657354 0)
(3.59726e-20 0.0661375 -0)
(3.57552e-20 0.0665395 -0)
(3.53728e-21 0.0669416 -0)
(0 0.0673436 0)
(3.51186e-20 0.0677457 -0)
(-3.53747e-21 0.0681477 0)
(3.47067e-20 0.0685498 -0)
(3.45043e-20 0.0689518 -0)
(-3.07666e-20 0.0693539 0)
(0 0.0697559 0)
(0 0.070158 0)
(-3.53783e-21 0.07056 0)
(3.35268e-20 0.0709621 -0)
(3.53794e-21 0.0713641 -0)
(3.31512e-20 0.0717662 -0)
(0 0.0721682 0)
(-3.53811e-21 0.0725703 0)
(0 0.0729723 0)
(0 0.0733744 0)
(3.53827e-21 0.0737764 -0)
(0 0.0741785 0)
(3.19002e-20 0.0745805 -0)
(-3.52676e-20 0.0749826 0)
(3.15599e-20 0.0753846 -0)
(0 0.0757867 0)
(-2.76883e-20 0.0761887 0)
(3.10629e-20 0.0765908 -0)
(-3.44394e-20 0.0769928 0)
(0 0.0773949 0)
(3.05813e-20 0.0777969 -0)
(3.53882e-21 0.078199 -0)
(0 0.078601 0)
(3.01144e-20 0.0790031 -0)
(-3.53896e-21 0.0794051 0)
(2.9811e-20 0.0798072 -0)
(0 0.0802092 0)
(3.53909e-21 0.0806113 -0)
(0 0.0810133 0)
(2.92222e-20 0.0814154 -0)
(-3.53922e-21 0.0818174 0)
(2.89364e-20 0.0822195 -0)
(3.53931e-21 0.0826215 -0)
(0 0.0830236 0)
(0 0.0834256 0)
(5.32231e-20 0.0838277 -0)
(0 0.0842297 0)
(-2.81116e-20 0.0846318 0)
(3.53955e-21 0.0850338 -0)
(-5.5694e-20 0.0854359 0)
(0 0.0858379 0)
(-3.53967e-21 0.08624 0)
(0 0.086642 0)
(0 0.0870441 0)
(5.79535e-20 0.0874461 -0)
(0 0.0878482 0)
(0 0.0882502 0)
(-5.36734e-20 0.0886523 0)
(-7.07986e-21 0.0890543 0)
(0 0.0894564 0)
(0 0.0898584 0)
(0 0.0902605 0)
(0 0.0906625 0)
(7.08021e-21 0.0910646 -0)
(-5.20219e-20 0.0914666 0)
(-5.17942e-20 0.0918687 0)
(0 0.0922707 0)
(0 0.0926728 0)
(0 0.0930748 0)
(4.38225e-20 0.0934769 -0)
(0 0.0938789 0)
(0 0.094281 0)
(0 0.094683 0)
(0 0.0950851 0)
(0 0.0954871 0)
(7.081e-21 0.0958892 -0)
(-4.94154e-20 0.0962912 0)
(0 0.0966933 0)
(0 0.0970953 0)
(0 0.0974974 0)
(-7.08131e-21 0.0978994 0)
(0 0.0983015 0)
(4.82076e-20 0.0987035 -0)
(0 0.0991056 0)
(0 0.0995076 0)
(4.76257e-20 0.0999097 -0)
(-4.03531e-20 0.100312 0)
(4.72454e-20 0.100714 -0)
(0 0.101116 0)
(0 0.101518 0)
(4.66863e-20 0.10192 -0)
(-1.00088e-19 0.102322 0)
(4.63209e-20 0.102724 -0)
(0 0.103126 0)
(0 0.103528 0)
(0 0.10393 0)
(0 0.104332 0)
(-8.37813e-20 0.104734 0)
(4.5258e-20 0.105136 -0)
(0 0.105538 0)
(4.49145e-20 0.10594 -0)
(0 0.106342 0)
(0 0.106745 0)
(-5.14915e-20 0.107147 0)
(0 0.107549 0)
(0 0.107951 0)
(4.39146e-20 0.108353 -0)
(0 0.108755 0)
(7.08281e-21 0.109157 -0)
(0 0.109559 0)
(0 0.109961 0)
(4.31147e-20 0.110363 -0)
(0 0.110765 0)
(4.28028e-20 0.111167 -0)
(-4.97317e-20 0.111569 0)
(0 0.111971 0)
(8.46868e-20 0.112373 -0)
(0 0.112775 0)
(0 0.113177 0)
(7.08332e-21 0.113579 -0)
(0 0.113981 0)
(4.15992e-20 0.114383 -0)
(0 0.114786 0)
(0 0.115188 0)
(8.23303e-20 0.11559 -0)
(-7.08358e-21 0.115992 0)
(0 0.116394 0)
(4.074e-20 0.116796 -0)
(0 0.117198 0)
(0 0.1176 0)
(0 0.118002 0)
(-7.32895e-20 0.118404 0)
(8.01014e-20 0.118806 -0)
(0 0.119208 0)
(3.97814e-20 0.11961 -0)
(0 0.120012 0)
(-8.61156e-20 0.120414 0)
(0 0.120816 0)
(0 0.121218 0)
(0 0.12162 0)
(0 0.122022 0)
(0 0.122424 0)
(7.08426e-21 0.122827 -0)
(0 0.123229 0)
(0 0.123631 0)
(0 0.124033 0)
(0 0.124435 0)
(-8.33162e-20 0.124837 0)
(0 0.125239 0)
(0 0.125641 0)
(7.55023e-20 0.126043 -0)
(0 0.126445 0)
(0 0.126847 0)
(7.08467e-21 0.127249 -0)
(0 0.127651 0)
(7.4317e-20 0.128053 -0)
(0 0.128455 0)
(0 0.128857 0)
(7.36235e-20 0.129259 -0)
(-7.08488e-21 0.129661 0)
(0 0.130063 0)
(7.29429e-20 0.130465 -0)
(0 0.130868 0)
(7.2496e-20 0.13127 -0)
(-6.51896e-20 0.131672 0)
(0 0.132074 0)
(7.1836e-20 0.132476 -0)
(0 0.132878 0)
(0 0.13328 0)
(7.11878e-20 0.133682 -0)
(-7.80596e-20 0.134084 0)
(0 0.134486 0)
(0 0.134888 0)
(0 0.13529 0)
(0 0.135692 0)
(-6.28406e-20 0.136094 0)
(6.972e-20 0.136496 -0)
(0 0.136898 0)
(0 0.1373 0)
(6.91094e-20 0.137702 -0)
(0 0.138104 0)
(-7.57937e-20 0.138506 0)
(6.85093e-20 0.138909 -0)
(0 0.139311 0)
(0 0.139713 0)
(0 0.140115 0)
(0 0.140517 0)
(7.08575e-21 0.140919 -0)
(0 0.141321 0)
(0 0.141723 0)
(0 0.142125 0)
(0 0.142527 0)
(-7.0859e-21 0.142929 0)
(0 0.143331 0)
(0 0.143733 0)
(6.6025e-20 0.144135 -0)
(0 0.144537 0)
(0 0.144939 0)
(-5.8391e-20 0.145341 0)
(0 0.145743 0)
(6.51168e-20 0.146145 -0)
(6.49381e-20 0.146547 -0)
(0 0.14695 0)
(-7.0862e-21 0.147352 0)
(0 0.147754 0)
(0 0.148156 0)
(0 0.148558 0)
(0 0.14896 0)
(0 0.149362 0)
(-5.64572e-20 0.149764 0)
(0 0.150166 0)
(6.32042e-20 0.150568 -0)
(0 0.15097 0)
(6.28684e-20 0.151372 -0)
(0 0.151774 0)
(-6.96227e-20 0.152176 0)
(6.23714e-20 0.152578 -0)
(0 0.15298 0)
(6.20444e-20 0.153382 -0)
(0 0.153784 0)
(7.08663e-21 0.154186 -0)
(0 0.154588 0)
(0 0.154991 0)
(0 0.155393 0)
(0 0.155795 0)
(0 0.156197 0)
(-7.08677e-21 0.156599 0)
(0 0.157001 0)
(0 0.157403 0)
(6.03056e-20 0.157805 -0)
(0 0.158207 0)
(-5.2913e-20 0.158609 0)
(5.98482e-20 0.159011 -0)
(0 0.159413 0)
(5.95471e-20 0.159815 -0)
(5.93976e-20 0.160217 -0)
(0 0.160619 0)
(-7.08702e-21 0.161021 0)
(0 0.161423 0)
(5.88073e-20 0.161825 -0)
(0 0.162227 0)
(0 0.162629 0)
(0 0.163032 0)
(-5.11415e-20 0.163434 0)
(0 0.163836 0)
(5.79436e-20 0.164238 -0)
(0 0.16464 0)
(5.76613e-20 0.165042 -0)
(-6.46084e-20 0.165444 0)
(0 0.165846 0)
(0 0.166248 0)
(0 0.16665 0)
(0 0.167052 0)
(5.68306e-20 0.167454 -0)
(-1.06302e-19 0.167856 0)
(0 0.168258 0)
(0 0.16866 0)
(-1.1258e-19 0.169062 0)
(0 0.169464 0)
(-7.08748e-21 0.169866 0)
(0 0.170268 0)
(1.11519e-19 0.17067 -0)
(0 0.171073 0)
(0 0.171475 0)
(0 0.171877 0)
(-1.03391e-19 0.172279 0)
(-1.10221e-19 0.172681 0)
(0 0.173083 0)
(0 0.173485 0)
(0 0.173887 0)
(0 0.174289 0)
(-7.08771e-21 0.174691 0)
(0 0.175093 0)
(0 0.175495 0)
(-1.22381e-19 0.175897 0)
(1.41756e-20 0.176299 -0)
(-1.41756e-20 0.176701 0)
(1.41756e-20 0.177103 -0)
(-1.21401e-19 0.177505 0)
(0 0.177907 0)
(1.20917e-19 0.178309 -0)
(-1.20677e-19 0.178711 0)
(1.41758e-20 0.179114 -0)
(-1.41759e-20 0.179516 0)
(1.41759e-20 0.179918 -0)
(-1.41759e-20 0.18032 0)
(1.4176e-20 0.180722 -0)
(-1.19259e-19 0.181124 0)
(1.4176e-20 0.181526 -0)
(-1.41761e-20 0.181928 0)
(-1.04388e-19 0.18233 0)
(1.41761e-20 0.182732 -0)
(-1.41762e-20 0.183134 0)
(1.41762e-20 0.183536 -0)
(-1.17651e-19 0.183938 0)
(1.41763e-20 0.18434 -0)
(-1.41763e-20 0.184742 0)
(-8.86248e-20 0.185144 0)
(-1.41764e-20 0.185546 0)
(1.16533e-19 0.185948 -0)
(-1.16312e-19 0.18635 0)
(0 0.186752 0)
(1.41765e-20 0.187155 -0)
(-1.41765e-20 0.187557 0)
(1.41766e-20 0.187959 -0)
(-1.41766e-20 0.188361 0)
(1.41766e-20 0.188763 -0)
(-1.41767e-20 0.189165 0)
(1.41767e-20 0.189567 -0)
(-1.41767e-20 0.189969 0)
(1.41768e-20 0.190371 -0)
(-1.41768e-20 0.190773 0)
(1.41768e-20 0.191175 -0)
(-9.93492e-20 0.191577 0)
(-1.41769e-20 0.191979 0)
(1.41769e-20 0.192381 -0)
(-1.12905e-19 0.192783 0)
(1.4177e-20 0.193185 -0)
(1.82458e-19 0.193587 -0)
(1.4177e-20 0.193989 -0)
(-2.09999e-19 0.194391 0)
(1.41771e-20 0.194794 -0)
(-1.41771e-20 0.195196 0)
(-8.31299e-20 0.195598 0)
(0 0.196 0)
(-1.41772e-20 0.196402 0)
(1.41773e-20 0.196804 -0)
(-1.41773e-20 0.197206 0)
(1.41773e-20 0.197608 -0)
(-1.41773e-20 0.19801 0)
(1.41774e-20 0.198412 -0)
(-1.41774e-20 0.198814 0)
(1.41774e-20 0.199216 -0)
(-1.41775e-20 0.199618 0)
(1.41775e-20 0.20002 -0)
(-9.49647e-20 0.200422 0)
(-1.41775e-20 0.200824 0)
(1.08763e-19 0.201226 -0)
(8.0219e-20 0.201628 -0)
(1.41776e-20 0.20203 -0)
(-1.41777e-20 0.202432 0)
(1.41777e-20 0.202835 -0)
(-1.41777e-20 0.203237 0)
(1.41777e-20 0.203639 -0)
(-1.41778e-20 0.204041 0)
(1.41778e-20 0.204443 -0)
(-1.85829e-19 0.204845 0)
(-1.41779e-20 0.205247 0)
(1.41779e-20 0.205649 -0)
(1.70563e-19 0.206051 -0)
(1.41779e-20 0.206453 -0)
(-1.4178e-20 0.206855 0)
(1.4178e-20 0.207257 -0)
(-1.4178e-20 0.207659 0)
(1.4178e-20 0.208061 -0)
(-1.41781e-20 0.208463 0)
(1.05304e-19 0.208865 -0)
(-9.09508e-20 0.209267 0)
(-1.41781e-20 0.209669 0)
(1.41782e-20 0.210071 -0)
(7.62514e-20 0.210473 -0)
(1.41782e-20 0.210876 -0)
(-1.41783e-20 0.211278 0)
(1.41783e-20 0.21168 -0)
(-1.41783e-20 0.212082 0)
(1.41783e-20 0.212484 -0)
(-1.41784e-20 0.212886 0)
(1.41784e-20 0.213288 -0)
(-1.41784e-20 0.21369 0)
(-8.89012e-20 0.214092 0)
(1.41785e-20 0.214494 -0)
(7.43901e-20 0.214896 -0)
(1.41785e-20 0.215298 -0)
(-1.41785e-20 0.2157 0)
(1.02253e-19 0.216102 -0)
(7.37321e-20 0.216504 -0)
(1.41786e-20 0.216906 -0)
(-1.41786e-20 0.217308 0)
(1.41787e-20 0.21771 -0)
(-1.41787e-20 0.218112 0)
(-8.7102e-20 0.218514 0)
(1.41787e-20 0.218917 -0)
(7.26039e-20 0.219319 -0)
(1.41788e-20 0.219721 -0)
(-1.41788e-20 0.220123 0)
(1.00487e-19 0.220525 -0)
(-1.41788e-20 0.220927 0)
(1.41789e-20 0.221329 -0)
(-1.41789e-20 0.221731 0)
(1.41789e-20 0.222133 -0)
(-1.41789e-20 0.222535 0)
(-1.70748e-19 0.222937 0)
(1.4179e-20 0.223339 -0)
(1.55955e-19 0.223741 -0)
(9.90937e-20 0.224143 -0)
(-1.4179e-20 0.224545 0)
(1.83401e-19 0.224947 -0)
(-1.41791e-20 0.225349 0)
(1.41791e-20 0.225751 -0)
(-1.41791e-20 0.226153 0)
(1.41792e-20 0.226555 -0)
(-1.41792e-20 0.226958 0)
(-8.37134e-20 0.22736 0)
(1.41792e-20 0.227762 -0)
(-1.41793e-20 0.228164 0)
(1.41793e-20 0.228566 -0)
(-1.41793e-20 0.228968 0)
(1.41793e-20 0.22937 -0)
(-1.41793e-20 0.229772 0)
(1.41794e-20 0.230174 -0)
(-1.41794e-20 0.230576 0)
(1.41794e-20 0.230978 -0)
(-1.41794e-20 0.23138 0)
(-8.21161e-20 0.231782 0)
(1.78127e-19 0.232184 -0)
(-1.41795e-20 0.232586 0)
(1.41795e-20 0.232988 -0)
(-1.41795e-20 0.23339 0)
(1.41796e-20 0.233792 -0)
(-1.41796e-20 0.234194 0)
(1.41796e-20 0.234596 -0)
(-1.41796e-20 0.234999 0)
(1.41796e-20 0.235401 -0)
(-1.41797e-20 0.235803 0)
(1.41797e-20 0.236205 -0)
(0 0.236607 0)
(-1.41797e-20 0.237009 0)
(1.41797e-20 0.237411 -0)
(-1.41798e-20 0.237813 0)
(1.41798e-20 0.238215 -0)
(-1.41798e-20 0.238617 0)
(1.41798e-20 0.239019 -0)
(6.53162e-20 0.239421 -0)
(1.41799e-20 0.239823 -0)
(-1.41799e-20 0.240225 0)
(1.41799e-20 0.240627 -0)
(0 0.241029 0)
(-1.41799e-20 0.241431 0)
(1.418e-20 0.241833 -0)
(-1.418e-20 0.242235 0)
(1.418e-20 0.242637 -0)
(-1.418e-20 0.24304 0)
(1.418e-20 0.243442 -0)
(-1.41801e-20 0.243844 0)
(1.41801e-20 0.244246 -0)
(-1.41801e-20 0.244648 0)
(1.41801e-20 0.24505 -0)
(0 0.245452 0)
(-1.41802e-20 0.245854 0)
(1.41802e-20 0.246256 -0)
(1.40147e-19 0.246658 -0)
(1.41802e-20 0.24706 -0)
(1.39646e-19 0.247462 -0)
(1.41802e-20 0.247864 -0)
(-1.41803e-20 0.248266 0)
(1.41803e-20 0.248668 -0)
(-1.41803e-20 0.24907 0)
(1.41803e-20 0.249472 -0)
(0 0.249874 0)
(-1.41804e-20 0.250276 0)
(1.41804e-20 0.250678 -0)
(-1.41804e-20 0.251081 0)
(1.41804e-20 0.251483 -0)
(-1.41804e-20 0.251885 0)
(1.41804e-20 0.252287 -0)
(-1.41805e-20 0.252689 0)
(1.41805e-20 0.253091 -0)
(-1.41805e-20 0.253493 0)
(1.41805e-20 0.253895 -0)
(-1.49691e-19 0.254297 0)
(-1.41806e-20 0.254699 0)
(1.634e-19 0.255101 -0)
(1.34804e-19 0.255503 -0)
(1.41806e-20 0.255905 -0)
(-1.41806e-20 0.256307 0)
(1.41806e-20 0.256709 -0)
(-1.41807e-20 0.257111 0)
(1.41807e-20 0.257513 -0)
(-1.41807e-20 0.257915 0)
(1.41807e-20 0.258317 -0)
(-1.41807e-20 0.25872 0)
(-1.46904e-19 0.259122 0)
(1.41808e-20 0.259524 -0)
(1.32269e-19 0.259926 -0)
(1.41808e-20 0.260328 -0)
(-1.41808e-20 0.26073 0)
(1.41808e-20 0.261132 -0)
(-1.41808e-20 0.261534 0)
(1.41809e-20 0.261936 -0)
(-1.41809e-20 0.262338 0)
(1.59062e-19 0.26274 -0)
(-1.41809e-20 0.263142 0)
(-1.44439e-19 0.263544 0)
(1.41809e-20 0.263946 -0)
(-1.4181e-20 0.264348 0)
(1.4181e-20 0.26475 -0)
(-1.4181e-20 0.265152 0)
(1.4181e-20 0.265554 -0)
(-1.4181e-20 0.265956 0)
(1.4181e-20 0.266358 -0)
(-1.41811e-20 0.266761 0)
(1.41811e-20 0.267163 -0)
(-1.41811e-20 0.267565 0)
(0 0.267967 0)
(1.41811e-20 0.268369 -0)
(-1.41811e-20 0.268771 0)
(1.41812e-20 0.269173 -0)
(-1.41812e-20 0.269575 0)
(1.41812e-20 0.269977 -0)
(1.26607e-19 0.270379 -0)
(1.41812e-20 0.270781 -0)
(-1.41812e-20 0.271183 0)
(1.41813e-20 0.271585 -0)
(-1.41813e-20 0.271987 0)
(-1.39749e-19 0.272389 0)
(1.41813e-20 0.272791 -0)
(-1.41813e-20 0.273193 0)
(1.41813e-20 0.273595 -0)
(-1.41813e-20 0.273997 0)
(1.41814e-20 0.274399 -0)
(-1.41814e-20 0.274802 0)
(1.41814e-20 0.275204 -0)
(-1.41814e-20 0.275606 0)
(1.52098e-19 0.276008 -0)
(-1.41814e-20 0.27641 0)
(1.41814e-20 0.276812 -0)
(-1.37317e-19 0.277214 0)
(-1.41815e-20 0.277616 0)
(1.51101e-19 0.278018 -0)
(-1.41815e-20 0.27842 0)
(1.41815e-20 0.278822 -0)
(-1.41815e-20 0.279224 0)
(1.41816e-20 0.279626 -0)
(-1.41816e-20 0.280028 0)
(1.49923e-19 0.28043 -0)
(-1.41816e-20 0.280832 0)
(1.41816e-20 0.281234 -0)
(0 0.281636 0)
(1.20786e-19 0.282038 -0)
(1.41817e-20 0.28244 -0)
(-1.41817e-20 0.282843 0)
(1.41817e-20 0.283245 -0)
(-1.41817e-20 0.283647 0)
(1.41817e-20 0.284049 -0)
(-1.41817e-20 0.284451 0)
(1.47816e-19 0.284853 -0)
(-1.41818e-20 0.285255 0)
(1.41818e-20 0.285657 -0)
(0 0.286059 0)
(-1.41818e-20 0.286461 0)
(1.41818e-20 0.286863 -0)
(-1.41818e-20 0.287265 0)
(1.41818e-20 0.287667 -0)
(-1.41819e-20 0.288069 0)
(1.41819e-20 0.288471 -0)
(-1.41819e-20 0.288873 0)
(1.41819e-20 0.289275 -0)
(-1.41819e-20 0.289677 0)
(1.41819e-20 0.290079 -0)
(0 0.290481 0)
(-1.41819e-20 0.290884 0)
(1.4182e-20 0.291286 -0)
(-1.4182e-20 0.291688 0)
(1.4182e-20 0.29209 -0)
(-1.4182e-20 0.292492 0)
(1.4182e-20 0.292894 -0)
(1.15605e-19 0.293296 -0)
(1.4182e-20 0.293698 -0)
(-1.41821e-20 0.2941 0)
(1.41821e-20 0.294502 -0)
(0 0.294904 0)
(-1.41821e-20 0.295306 0)
(1.41821e-20 0.295708 -0)
(-1.41821e-20 0.29611 0)
(1.41821e-20 0.296512 -0)
(-1.41821e-20 0.296914 0)
(1.41822e-20 0.297316 -0)
(-1.41822e-20 0.297718 0)
(1.41822e-20 0.29812 -0)
(-1.41822e-20 0.298522 0)
(1.41822e-20 0.298925 -0)
(1.1299e-19 0.299327 -0)
(-1.27002e-19 0.299729 0)
(1.41822e-20 0.300131 -0)
(-1.41823e-20 0.300533 0)
(1.40675e-19 0.300935 -0)
(-1.41823e-20 0.301337 0)
(1.41823e-20 0.301739 -0)
(-1.41823e-20 0.302141 0)
(1.41823e-20 0.302543 -0)
(-1.41823e-20 0.302945 0)
(1.41823e-20 0.303347 -0)
(-1.41824e-20 0.303749 0)
(-1.25155e-19 0.304151 0)
(1.41824e-20 0.304553 -0)
(1.10643e-19 0.304955 -0)
(1.41824e-20 0.305357 -0)
(-1.41824e-20 0.305759 0)
(1.41824e-20 0.306161 -0)
(-1.41824e-20 0.306563 0)
(1.41825e-20 0.306966 -0)
(-1.41825e-20 0.307368 0)
(1.37866e-19 0.30777 -0)
(-1.41825e-20 0.308172 0)
(0 0.308574 0)
(1.41825e-20 0.308976 -0)
(-1.41825e-20 0.309378 0)
(1.41825e-20 0.30978 -0)
(-1.41826e-20 0.310182 0)
(1.41826e-20 0.310584 -0)
(1.08222e-19 0.310986 -0)
(1.41826e-20 0.311388 -0)
(-1.41826e-20 0.31179 0)
(1.41826e-20 0.312192 -0)
(-1.41826e-20 0.312594 0)
(-1.21618e-19 0.312996 0)
(1.41827e-20 0.313398 -0)
(-1.41827e-20 0.3138 0)
(1.41827e-20 0.314202 -0)
(-1.41827e-20 0.314605 0)
(1.41827e-20 0.315007 -0)
(1.06505e-19 0.315409 -0)
(1.41827e-20 0.315811 -0)
(1.06198e-19 0.316213 -0)
(1.34411e-19 0.316615 -0)
(-1.41828e-20 0.317017 0)
(-1.19924e-19 0.317419 0)
(1.41828e-20 0.317821 -0)
(-1.41828e-20 0.318223 0)
(1.41828e-20 0.318625 -0)
(-1.41828e-20 0.319027 0)
(1.41828e-20 0.319429 -0)
(1.04836e-19 0.319831 -0)
(1.33053e-19 0.320233 -0)
(-1.41829e-20 0.320635 0)
(1.32755e-19 0.321037 -0)
(-1.41829e-20 0.321439 0)
(1.41829e-20 0.321841 -0)
(-1.18128e-19 0.322243 0)
(-1.41829e-20 0.322646 0)
(1.41829e-20 0.323048 -0)
(-1.41829e-20 0.32345 0)
(1.31725e-19 0.323852 -0)
(-1.4183e-20 0.324254 0)
(1.4183e-20 0.324656 -0)
(-1.4183e-20 0.325058 0)
(1.31144e-19 0.32546 -0)
(-1.4183e-20 0.325862 0)
(1.4183e-20 0.326264 -0)
(-1.16529e-19 0.326666 0)
(-1.4183e-20 0.327068 0)
(1.4183e-20 0.32747 -0)
(-1.41831e-20 0.327872 0)
(1.41831e-20 0.328274 -0)
(-1.41831e-20 0.328676 0)
(1.41831e-20 0.329078 -0)
(-1.41831e-20 0.32948 0)
(1.29576e-19 0.329882 -0)
(-1.41831e-20 0.330284 0)
(1.41831e-20 0.330687 -0)
(-1.14972e-19 0.331089 0)
(1.0065e-19 0.331491 -0)
(1.41832e-20 0.331893 -0)
(-1.41832e-20 0.332295 0)
(1.41832e-20 0.332697 -0)
(-1.41832e-20 0.333099 0)
(1.41832e-20 0.333501 -0)
(-1.41832e-20 0.333903 0)
(1.2805e-19 0.334305 -0)
(-1.41832e-20 0.334707 0)
(1.41832e-20 0.335109 -0)
(-2.26914e-19 0.335511 0)
(-1.41833e-20 0.335913 0)
(1.41833e-20 0.336315 -0)
(-1.41833e-20 0.336717 0)
(1.41833e-20 0.337119 -0)
(-2.39746e-19 0.337521 0)
(1.41833e-20 0.337923 -0)
(-1.41833e-20 0.338325 0)
(1.41833e-20 0.338728 -0)
(-1.41833e-20 0.33913 0)
(1.41834e-20 0.339532 -0)
(-2.23962e-19 0.339934 0)
(-1.41834e-20 0.340336 0)
(1.41834e-20 0.340738 -0)
(2.08986e-19 0.34114 -0)
(1.41834e-20 0.341542 -0)
(-1.41834e-20 0.341944 0)
(1.41834e-20 0.342346 -0)
(-2.36306e-19 0.342748 0)
(1.41834e-20 0.34315 -0)
(-1.41835e-20 0.343552 0)
(-2.0716e-19 0.343954 0)
(-1.41835e-20 0.344356 0)
(-2.20828e-19 0.344758 0)
(1.41835e-20 0.34516 -0)
(-1.41835e-20 0.345562 0)
(1.41835e-20 0.345964 -0)
(-2.33986e-19 0.346366 0)
(1.41835e-20 0.346769 -0)
(-1.41835e-20 0.347171 0)
(1.41835e-20 0.347573 -0)
(-1.41836e-20 0.347975 0)
(1.41836e-20 0.348377 -0)
(-1.41836e-20 0.348779 0)
(0 0.349181 0)
(1.41836e-20 0.349583 -0)
(-1.41836e-20 0.349985 0)
(-2.03097e-19 0.350387 0)
(-1.41836e-20 0.350789 0)
(1.41836e-20 0.351191 -0)
(2.83673e-20 0.351593 -0)
(2.16287e-19 0.351995 -0)
(-2.44408e-19 0.352397 0)
(0 0.352799 0)
(2.83674e-20 0.353201 -0)
(0 0.353603 0)
(1.86692e-19 0.354005 -0)
(0 0.354407 0)
(2.83674e-20 0.35481 -0)
(0 0.355212 0)
(-2.83675e-20 0.355614 0)
(2.83675e-20 0.356016 -0)
(2.13604e-19 0.356418 -0)
(-2.83675e-20 0.35682 0)
(0 0.357222 0)
(2.83676e-20 0.357624 -0)
(0 0.358026 0)
(-2.83676e-20 0.358428 0)
(0 0.35883 0)
(2.83676e-20 0.359232 -0)
(0 0.359634 0)
(-2.83677e-20 0.360036 0)
(2.83677e-20 0.360438 -0)
(0 0.36084 0)
(-2.83677e-20 0.361242 0)
(0 0.361644 0)
(2.83677e-20 0.362046 -0)
(2.1005e-19 0.362448 -0)
(-2.83678e-20 0.362851 0)
(0 0.363253 0)
(2.83678e-20 0.363655 -0)
(2.09122e-19 0.364057 -0)
(-2.37259e-19 0.364459 0)
(2.83679e-20 0.364861 -0)
(0 0.365263 0)
(-2.83679e-20 0.365665 0)
(0 0.366067 0)
(2.83679e-20 0.366469 -0)
(0 0.366871 0)
(-2.8368e-20 0.367273 0)
(0 0.367675 0)
(2.8368e-20 0.368077 -0)
(2.06612e-19 0.368479 -0)
(-2.34755e-19 0.368881 0)
(2.83681e-20 0.369283 -0)
(0 0.369685 0)
(-2.83681e-20 0.370087 0)
(0 0.37049 0)
(2.83681e-20 0.370892 -0)
(2.05046e-19 0.371294 -0)
(-2.83682e-20 0.371696 0)
(2.04603e-19 0.372098 -0)
(2.83682e-20 0.3725 -0)
(2.04161e-19 0.372902 -0)
(-2.3231e-19 0.373304 0)
(2.83682e-20 0.373706 -0)
(0 0.374108 0)
(-2.83683e-20 0.37451 0)
(0 0.374912 0)
(2.83683e-20 0.375314 -0)
(0 0.375716 0)
(-2.30784e-19 0.376118 0)
(2.02199e-19 0.37652 -0)
(2.83684e-20 0.376922 -0)
(2.01768e-19 0.377324 -0)
(-2.83684e-20 0.377726 0)
(2.01339e-19 0.378128 -0)
(-1.72757e-19 0.378531 0)
(-2.83685e-20 0.378933 0)
(2.00699e-19 0.379335 -0)
(-1.72118e-19 0.379737 0)
(2.00275e-19 0.380139 -0)
(-2.28432e-19 0.380541 0)
(3.99704e-19 0.380943 -0)
(2.83685e-20 0.381345 -0)
(1.99431e-19 0.381747 -0)
(-2.83686e-20 0.382149 0)
(1.99012e-19 0.382551 -0)
(-1.70434e-19 0.382953 0)
(-2.83686e-20 0.383355 0)
(1.98386e-19 0.383757 -0)
(-1.6981e-19 0.384159 0)
(0 0.384561 0)
(-2.26133e-19 0.384963 0)
(0 0.385365 0)
(-1.68984e-19 0.385767 0)
(1.97147e-19 0.386169 -0)
(-2.83687e-20 0.386572 0)
(1.96737e-19 0.386974 -0)
(2.83688e-20 0.387376 -0)
(-2.83688e-20 0.387778 0)
(1.96126e-19 0.38818 -0)
(-1.67554e-19 0.388582 0)
(1.95721e-19 0.388984 -0)
(-2.23887e-19 0.389386 0)
(0 0.389788 0)
(-3.61862e-19 0.39019 0)
(1.94915e-19 0.390592 -0)
(-2.83689e-20 0.390994 0)
(0 0.391396 0)
(2.83689e-20 0.391798 -0)
(-2.8369e-20 0.3922 0)
(0 0.392602 0)
(-1.65349e-19 0.393004 0)
(1.9352e-19 0.393406 -0)
(-2.21692e-19 0.393808 0)
(1.93126e-19 0.39421 -0)
(-1.6456e-19 0.394613 0)
(0 0.395015 0)
(-2.83691e-20 0.395417 0)
(0 0.395819 0)
(2.83691e-20 0.396221 -0)
(-2.2032e-19 0.396623 0)
(1.91757e-19 0.397025 -0)
(-3.54756e-19 0.397427 0)
(1.91369e-19 0.397829 -0)
(-2.19545e-19 0.398231 0)
(1.90983e-19 0.398633 -0)
(2.83692e-20 0.399035 -0)
(0 0.399437 0)
(-2.83692e-20 0.399839 0)
(0 0.400241 0)
(2.83693e-20 0.400643 -0)
(-2.18204e-19 0.401045 0)
(3.79288e-19 0.401447 -0)
(-1.61085e-19 0.401849 0)
)
;
        slipLength      uniform 5.4e-07;
        value    uniform (0 0 0);
    }
    bottom
    {
        type            navierSlip;
        value           uniform (0 0 0);
        slipLength      uniform 5.4e-07;
        wallVelocity    uniform (0 0 0);
    }
    outerWall
    {
        type            fixedValue;
        value           uniform (0 0 0);
    }
    left
    {
        type            wedge;
    }
    right
    {
        type            wedge;
    }
    axis
    {
        type            empty;
    }
}


// ************************************************************************* //
