/*--------------------------------*- C++ -*----------------------------------*\
| =========                 |                                                 |
| \\      /  F ield         | OpenFOAM: The Open Source CFD Toolbox           |
|  \\    /   O peration     | Version:  2206                                  |
|   \\  /    A nd           | Website:  www.openfoam.com                      |
|    \\/     M anipulation  |                                                 |
\*---------------------------------------------------------------------------*/
FoamFile
{
    version     2.0;
    format      ascii;
    arch        "LSB;label=32;scalar=64";
    class       volVectorField;
    location    "0";
    object      U;
}
// * * * * * * * * * * * * * * * * * * * * * * * * * * * * * * * * * * * * * //

dimensions      [0 1 -1 0 0 0 0];

internalField   uniform (0 0 0);

boundaryField
{
    top
    {
        type            navierSlip;
        wallVelocity           nonuniform List<vector> 
5000
(
(0 5.36066e-05 0)
(-4.61971e-24 0.000125082 0)
(0 0.000203705 0)
(-1.49498e-22 0.000283349 0)
(1.50154e-22 0.000363333 -0)
(-4.35977e-22 0.000443472 0)
(-3.21995e-22 0.000523695 0)
(0 0.000603967 0)
(2.65798e-22 0.000684272 -0)
(4.75638e-22 0.000764599 -0)
(-4.30339e-22 0.000844941 0)
(-5.30263e-23 0.000925296 0)
(-7.22969e-22 0.00100566 0)
(5.33833e-23 0.00108603 -0)
(-6.2325e-22 0.0011664 0)
(0 0.00124678 0)
(-5.37566e-23 0.00132717 0)
(5.38526e-23 0.00140755 -0)
(-4.88493e-22 0.00148794 0)
(0 0.00156834 0)
(0 0.00164873 0)
(-1.68132e-21 0.00172912 0)
(9.11709e-22 0.00180952 -0)
(0 0.00188992 0)
(-1.47545e-21 0.00197031 0)
(0 0.00205071 0)
(0 0.00213111 0)
(-1.08857e-22 0.00221151 0)
(0 0.00229192 0)
(0 0.00237232 0)
(0 0.00245272 0)
(0 0.00253312 0)
(1.09167e-22 0.00261353 -0)
(0 0.00269393 0)
(-1.09266e-22 0.00277433 0)
(-1.23689e-21 0.00285474 0)
(2.18709e-22 0.00293514 -0)
(-2.1879e-22 0.00301555 0)
(2.18866e-22 0.00309595 -0)
(-2.18939e-22 0.00317636 0)
(2.19009e-22 0.00325676 -0)
(1.52302e-21 0.00333717 -0)
(2.19137e-22 0.00341758 -0)
(1.4428e-21 0.00349798 -0)
(0 0.00357839 0)
(3.3972e-21 0.00365879 -0)
(-2.19362e-22 0.0037392 0)
(3.26349e-21 0.00381961 -0)
(1.2712e-21 0.00390002 -0)
(3.1406e-21 0.00398042 -0)
(1.21207e-21 0.00406083 -0)
(3.02724e-21 0.00414124 -0)
(2.53454e-21 0.00422164 -0)
(2.92236e-21 0.00430205 -0)
(0 0.00438246 0)
(2.38555e-21 0.00446287 -0)
(2.19784e-22 0.00454327 -0)
(2.29486e-21 0.00462368 -0)
(2.69154e-21 0.00470409 -0)
(2.21027e-21 0.0047845 -0)
(2.6099e-21 0.00486491 -0)
(2.13118e-21 0.00494531 -0)
(2.53347e-21 0.00502572 -0)
(-2.2e-22 0.00510613 0)
(-2.24177e-21 0.00518654 0)
(2.20053e-22 0.00526695 -0)
(1.95427e-21 0.00534735 -0)
(2.36224e-21 0.00542776 -0)
(1.89073e-21 0.00550817 -0)
(-2.08049e-21 0.00558858 0)
(-4.40347e-22 0.00566899 0)
(0 0.0057494 0)
(-1.55396e-21 0.00582981 0)
(-1.96726e-21 0.00591021 0)
(-4.40516e-22 0.00599062 0)
(0 0.00607103 0)
(-3.33964e-21 0.00615144 0)
(0 0.00623185 0)
(0 0.00631226 0)
(-4.40703e-22 0.00639267 0)
(0 0.00647307 0)
(-3.10754e-21 0.00655348 0)
(0 0.00663389 0)
(3.02249e-21 0.0067143 -0)
(0 0.00679471 0)
(3.82321e-21 0.00687512 -0)
(0 0.00695553 0)
(6.16905e-21 0.00703594 -0)
(0 0.00711635 0)
(0 0.00719676 0)
(6.83193e-21 0.00727716 -0)
(0 0.00735757 0)
(-4.41095e-22 0.00743798 0)
(0 0.00751839 0)
(6.56152e-21 0.0075988 -0)
(0 0.00767921 0)
(2.55557e-21 0.00775962 -0)
(0 0.00784003 0)
(0 0.00792044 0)
(6.25408e-21 0.00800085 -0)
(0 0.00808125 0)
(-4.41308e-22 0.00816166 0)
(0 0.00824207 0)
(6.02952e-21 0.00832248 -0)
(0 0.00840289 0)
(2.29973e-21 0.0084833 -0)
(0 0.00856371 0)
(5.82167e-21 0.00864412 -0)
(0 0.00872453 0)
(0 0.00880494 0)
(4.79268e-21 0.00888535 -0)
(0 0.00896576 0)
(4.41521e-22 0.00904617 -0)
(0 0.00912658 0)
(4.60976e-21 0.00920698 -0)
(0 0.00928739 0)
(5.40619e-21 0.0093678 -0)
(0 0.00944821 0)
(0 0.00952862 0)
(4.39833e-21 0.00960903 -0)
(0 0.00968944 0)
(5.20196e-21 0.00976985 -0)
(0 0.00985026 0)
(4.24151e-21 0.00993067 -0)
(0 0.0100111 0)
(5.0503e-21 0.0100915 -0)
(0 0.0101719 0)
(4.09453e-21 0.0102523 -0)
(0 0.0103327 0)
(0 0.0104131 0)
(4.41793e-22 0.0104935 -0)
(0 0.0105739 0)
(3.92328e-21 0.0106544 -0)
(0 0.0107348 0)
(4.74203e-21 0.0108152 -0)
(0 0.0108956 0)
(3.79532e-21 0.010976 -0)
(0 0.0110564 0)
(0 0.0111368 0)
(0 0.0112172 0)
(-8.83828e-22 0.0112976 0)
(0 0.011378 0)
(0 0.0114584 0)
(0 0.0115389 0)
(-3.11868e-21 0.0116193 0)
(0 0.0116997 0)
(0 0.0117801 0)
(0 0.0118605 0)
(0 0.0119409 0)
(-8.84018e-22 0.0120213 0)
(0 0.0121017 0)
(0 0.0121821 0)
(0 0.0122625 0)
(8.84095e-22 0.012343 -0)
(0 0.0124234 0)
(0 0.0125038 0)
(0 0.0125842 0)
(0 0.0126646 0)
(-8.84187e-22 0.012745 0)
(0 0.0128254 0)
(0 0.0129058 0)
(0 0.0129862 0)
(8.84255e-22 0.0130666 -0)
(-7.07493e-21 0.013147 0)
(0 0.0132275 0)
(0 0.0133079 0)
(6.06313e-21 0.0133883 -0)
(0 0.0134687 0)
(0 0.0135491 0)
(0 0.0136295 0)
(0 0.0137099 0)
(7.6293e-21 0.0137903 -0)
(0 0.0138707 0)
(0 0.0139511 0)
(0 0.0140316 0)
(1.22979e-20 0.014112 -0)
(0 0.0141924 0)
(0 0.0142728 0)
(0 0.0143532 0)
(0 0.0144336 0)
(7.29312e-21 0.014514 -0)
(0 0.0145944 0)
(0 0.0146748 0)
(0 0.0147552 0)
(-8.84581e-22 0.0148357 0)
(0 0.0149161 0)
(0 0.0149965 0)
(0 0.0150769 0)
(0 0.0151573 0)
(6.98887e-21 0.0152377 -0)
(0 0.0153181 0)
(0 0.0153985 0)
(0 0.0154789 0)
(1.10714e-20 0.0155593 -0)
(0 0.0156397 0)
(0 0.0157202 0)
(0 0.0158006 0)
(0 0.015881 0)
(1.25397e-20 0.0159614 -0)
(0 0.0160418 0)
(0 0.0161222 0)
(0 0.0162026 0)
(4.82756e-21 0.016283 -0)
(0 0.0163634 0)
(0 0.0164438 0)
(0 0.0165243 0)
(0 0.0166047 0)
(1.20343e-20 0.0166851 -0)
(0 0.0167655 0)
(0 0.0168459 0)
(0 0.0169263 0)
(-8.84888e-22 0.0170067 0)
(0 0.0170871 0)
(0 0.0171675 0)
(0 0.0172479 0)
(1.16204e-20 0.0173284 -0)
(0 0.0174088 0)
(0 0.0174892 0)
(0 0.0175696 0)
(0 0.01765 0)
(9.6071e-21 0.0177304 -0)
(0 0.0178108 0)
(0 0.0178912 0)
(0 0.0179716 0)
(1.11901e-20 0.018052 -0)
(0 0.0181324 0)
(0 0.0182129 0)
(0 0.0182933 0)
(0 0.0183737 0)
(9.19557e-21 0.0184541 -0)
(0 0.0185345 0)
(0 0.0186149 0)
(0 0.0186953 0)
(1.0793e-20 0.0187757 -0)
(0 0.0188561 0)
(0 0.0189365 0)
(0 0.019017 0)
(0 0.0190974 0)
(8.81509e-21 0.0191778 -0)
(0 0.0192582 0)
(0 0.0193386 0)
(0 0.019419 0)
(1.04254e-20 0.0194994 -0)
(0 0.0195798 0)
(0 0.0196602 0)
(-9.42363e-21 0.0197406 0)
(0 0.0198211 0)
(-8.85193e-22 0.0199015 0)
(0 0.0199819 0)
(0 0.0200623 0)
(0 0.0201427 0)
(1.0084e-20 0.0202231 -0)
(0 0.0203035 0)
(0 0.0203839 0)
(0 0.0204643 0)
(8.16955e-21 0.0205447 -0)
(0 0.0206251 0)
(0 0.0207056 0)
(0 0.020786 0)
(0 0.0208664 0)
(8.85282e-22 0.0209468 -0)
(0 0.0210272 0)
(0 0.0211076 0)
(0 0.021188 0)
(7.86139e-21 0.0212684 -0)
(0 0.0213488 0)
(0 0.0214292 0)
(0 0.0215097 0)
(0 0.0215901 0)
(9.46976e-21 0.0216705 -0)
(0 0.0217509 0)
(0 0.0218313 0)
(0 0.0219117 0)
(7.57351e-21 0.0219921 -0)
(0 0.0220725 0)
(0 0.0221529 0)
(0 0.0222333 0)
(0 0.0223138 0)
(0 0.0223942 0)
(0 0.0224746 0)
(-1.77081e-21 0.022555 0)
(0 0.0226354 0)
(0 0.0227158 0)
(0 0.0227962 0)
(0 0.0228766 0)
(0 0.022957 0)
(0 0.0230374 0)
(0 0.0231179 0)
(0 0.0231983 0)
(-6.22047e-21 0.0232787 0)
(0 0.0233591 0)
(0 0.0234395 0)
(0 0.0235199 0)
(0 0.0236003 0)
(0 0.0236807 0)
(0 0.0237611 0)
(0 0.0238415 0)
(0 0.0239219 0)
(-1.771e-21 0.0240024 0)
(0 0.0240828 0)
(0 0.0241632 0)
(0 0.0242436 0)
(0 0.024324 0)
(0 0.0244044 0)
(0 0.0244848 0)
(0 0.0245652 0)
(0 0.0246456 0)
(1.77108e-21 0.024726 -0)
(0 0.0248065 0)
(0 0.0248869 0)
(0 0.0249673 0)
(0 0.0250477 0)
(0 0.0251281 0)
(0 0.0252085 0)
(0 0.0252889 0)
(0 0.0253693 0)
(-1.63905e-20 0.0254497 0)
(0 0.0255301 0)
(0 0.0256106 0)
(0 0.025691 0)
(0 0.0257714 0)
(0 0.0258518 0)
(-1.43473e-20 0.0259322 0)
(0 0.0260126 0)
(1.77124e-21 0.026093 -0)
(0 0.0261734 0)
(0 0.0262538 0)
(2.82565e-20 0.0263342 -0)
(0 0.0264147 0)
(1.40425e-20 0.0264951 -0)
(0 0.0265755 0)
(1.39578e-20 0.0266559 -0)
(1.39158e-20 0.0267363 -0)
(-1.77131e-21 0.0268167 0)
(2.76652e-20 0.0268971 -0)
(0 0.0269775 0)
(1.37504e-20 0.0270579 -0)
(0 0.0271383 0)
(1.36691e-20 0.0272187 -0)
(1.36289e-20 0.0272992 -0)
(0 0.0273796 0)
(1.35491e-20 0.02746 -0)
(1.77138e-21 0.0275404 -0)
(1.34702e-20 0.0276208 -0)
(0 0.0277012 0)
(1.33922e-20 0.0277816 -0)
(2.67071e-20 0.027862 -0)
(0 0.0279424 0)
(1.32769e-20 0.0280228 -0)
(0 0.0281033 0)
(1.32012e-20 0.0281837 -0)
(-1.77145e-21 0.0282641 0)
(2.62525e-20 0.0283445 -0)
(1.30891e-20 0.0284249 -0)
(0 0.0285053 0)
(0 0.0285857 0)
(0 0.0286661 0)
(1.29427e-20 0.0287465 -0)
(0 0.0288269 0)
(1.28707e-20 0.0289074 -0)
(1.77151e-21 0.0289878 -0)
(0 0.0290682 0)
(1.27642e-20 0.0291486 -0)
(0 0.029229 0)
(1.26941e-20 0.0293094 -0)
(0 0.0293898 0)
(2.52497e-20 0.0294702 -0)
(1.25905e-20 0.0295506 -0)
(0 0.029631 0)
(-1.77157e-21 0.0297115 0)
(0 0.0297919 0)
(2.49098e-20 0.0298723 -0)
(1.24215e-20 0.0299527 -0)
(0 0.0300331 0)
(1.23552e-20 0.0301135 -0)
(0 0.0301939 0)
(2.4579e-20 0.0302743 -0)
(0 0.0303547 0)
(1.77163e-21 0.0304351 -0)
(1.21924e-20 0.0305155 -0)
(0 0.030596 0)
(2.42569e-20 0.0306764 -0)
(0 0.0307568 0)
(2.41304e-20 0.0308372 -0)
(0 0.0309176 0)
(1.20026e-20 0.030998 -0)
(1.19716e-20 0.0310784 -0)
(-1.77168e-21 0.0311588 0)
(1.19099e-20 0.0312392 -0)
(0 0.0313196 0)
(2.36978e-20 0.0314001 -0)
(0 0.0314805 0)
(1.17885e-20 0.0315609 -0)
(1.17586e-20 0.0316413 -0)
(0 0.0317217 0)
(0 0.0318021 0)
(1.77173e-21 0.0318825 -0)
(2.32805e-20 0.0319629 -0)
(0 0.0320433 0)
(1.1582e-20 0.0321237 -0)
(2.31061e-20 0.0322042 -0)
(0 0.0322846 0)
(1.14957e-20 0.032365 -0)
(0 0.0324454 0)
(2.28776e-20 0.0325258 -0)
(-1.77178e-21 0.0326062 0)
(2.27651e-20 0.0326866 -0)
(2.27092e-20 0.032767 -0)
(0 0.0328474 0)
(1.12992e-20 0.0329278 -0)
(0 0.0330083 0)
(0 0.0330887 0)
(0 0.0331691 0)
(2.23797e-20 0.0332495 -0)
(-2.05539e-20 0.0333299 0)
(0 0.0334103 0)
(0 0.0334907 0)
(0 0.0335711 0)
(2.21123e-20 0.0336515 -0)
(0 0.0337319 0)
(2.20072e-20 0.0338124 -0)
(0 0.0338928 0)
(-1.77187e-21 0.0339732 0)
(2.18513e-20 0.0340536 -0)
(0 0.034134 0)
(2.17486e-20 0.0342144 -0)
(0 0.0342948 0)
(2.16468e-20 0.0343752 -0)
(2.15963e-20 0.0344556 -0)
(0 0.034536 0)
(2.1496e-20 0.0346164 -0)
(1.77191e-21 0.0346969 -0)
(2.13966e-20 0.0347773 -0)
(0 0.0348577 0)
(0 0.0349381 0)
(2.12492e-20 0.0350185 -0)
(0 0.0350989 0)
(2.1152e-20 0.0351793 -0)
(0 0.0352597 0)
(0 0.0353401 0)
(-1.77196e-21 0.0354205 0)
(2.09604e-20 0.035501 -0)
(2.0913e-20 0.0355814 -0)
(0 0.0356618 0)
(0 0.0357422 0)
(0 0.0358226 0)
(2.07257e-20 0.035903 -0)
(0 0.0359834 0)
(2.06332e-20 0.0360638 -0)
(1.772e-21 0.0361442 -0)
(0 0.0362246 0)
(2.04961e-20 0.0363051 -0)
(0 0.0363855 0)
(2.04058e-20 0.0364659 -0)
(0 0.0365463 0)
(2.03162e-20 0.0366267 -0)
(2.02717e-20 0.0367071 -0)
(0 0.0367875 0)
(-1.77203e-21 0.0368679 0)
(0 0.0369483 0)
(2.00956e-20 0.0370287 -0)
(0 0.0371092 0)
(0 0.0371896 0)
(1.99655e-20 0.03727 -0)
(0 0.0373504 0)
(1.98797e-20 0.0374308 -0)
(0 0.0375112 0)
(1.77207e-21 0.0375916 -0)
(0 0.037672 0)
(1.97103e-20 0.0377524 -0)
(0 0.0378328 0)
(0 0.0379133 0)
(0 0.0379937 0)
(0 0.0380741 0)
(0 0.0381545 0)
(0 0.0382349 0)
(-1.77211e-21 0.0383153 0)
(0 0.0383957 0)
(0 0.0384761 0)
(1.92993e-20 0.0385565 -0)
(0 0.0386369 0)
(1.92191e-20 0.0387173 -0)
(0 0.0387978 0)
(0 0.0388782 0)
(1.91001e-20 0.0389586 -0)
(1.77214e-21 0.039039 -0)
(1.90216e-20 0.0391194 -0)
(0 0.0391998 0)
(1.89437e-20 0.0392802 -0)
(0 0.0393606 0)
(-1.88665e-20 0.039441 0)
(1.88281e-20 0.0395214 -0)
(0 0.0396019 0)
(0 0.0396823 0)
(-1.77218e-21 0.0397627 0)
(0 0.0398431 0)
(0 0.0399235 0)
(1.8601e-20 0.0400039 -0)
(1.85637e-20 0.0400843 -0)
(0 0.0401647 0)
(0 0.0402451 0)
(0 0.0403255 0)
(1.84159e-20 0.040406 -0)
(1.77221e-21 0.0404864 -0)
(1.83429e-20 0.0405668 -0)
(0 0.0406472 0)
(0 0.0407276 0)
(1.82345e-20 0.040808 -0)
(0 0.0408884 0)
(1.81629e-20 0.0409688 -0)
(0 0.0410492 0)
(-1.77224e-21 0.0411296 0)
(1.80566e-20 0.0412101 -0)
(0 0.0412905 0)
(1.79864e-20 0.0413709 -0)
(0 0.0414513 0)
(1.79168e-20 0.0415317 -0)
(0 0.0416121 0)
(0 0.0416925 0)
(1.78133e-20 0.0417729 -0)
(1.77227e-21 0.0418533 -0)
(1.7745e-20 0.0419337 -0)
(0 0.0420142 0)
(0 0.0420946 0)
(1.76435e-20 0.042175 -0)
(0 0.0422554 0)
(1.75765e-20 0.0423358 -0)
(0 0.0424162 0)
(0 0.0424966 0)
(-1.77229e-21 0.042577 0)
(1.74439e-20 0.0426574 -0)
(1.74111e-20 0.0427378 -0)
(0 0.0428182 0)
(0 0.0428987 0)
(0 0.0429791 0)
(1.72811e-20 0.0430595 -0)
(0 0.0431399 0)
(1.72168e-20 0.0432203 -0)
(1.77232e-21 0.0433007 -0)
(0 0.0433811 0)
(1.71212e-20 0.0434615 -0)
(0 0.0435419 0)
(1.70581e-20 0.0436223 -0)
(0 0.0437028 0)
(1.69954e-20 0.0437832 -0)
(1.69643e-20 0.0438636 -0)
(-1.87056e-20 0.043944 0)
(1.69023e-20 0.0440244 -0)
(0 0.0441048 0)
(1.68408e-20 0.0441852 -0)
(1.68102e-20 0.0442656 -0)
(0 0.044346 0)
(1.67493e-20 0.0444264 -0)
(0 0.0445069 0)
(1.66889e-20 0.0445873 -0)
(0 0.0446677 0)
(0 0.0447481 0)
(0 0.0448285 0)
(1.65694e-20 0.0449089 -0)
(1.65398e-20 0.0449893 -0)
(-3.54477e-21 0.0450697 0)
(0 0.0451501 0)
(0 0.0452305 0)
(1.64224e-20 0.045311 -0)
(0 0.0453914 0)
(0 0.0454718 0)
(0 0.0455522 0)
(0 0.0456326 0)
(1.62779e-20 0.045713 -0)
(0 0.0457934 0)
(1.62209e-20 0.0458738 -0)
(0 0.0459542 0)
(1.61642e-20 0.0460346 -0)
(1.6136e-20 0.0461151 -0)
(0 0.0461955 0)
(1.60799e-20 0.0462759 -0)
(0 0.0463563 0)
(1.60243e-20 0.0464367 -0)
(1.95414e-20 0.0465171 -0)
(0 0.0465975 0)
(1.59414e-20 0.0466779 -0)
(0 0.0467583 0)
(3.17734e-20 0.0468387 -0)
(0 0.0469191 0)
(0 0.0469996 0)
(0 0.04708 0)
(1.57784e-20 0.0471604 -0)
(1.57515e-20 0.0472408 -0)
(0 0.0473212 0)
(0 0.0474016 0)
(0 0.047482 0)
(1.5645e-20 0.0475624 -0)
(0 0.0476428 0)
(3.11845e-20 0.0477232 -0)
(0 0.0478037 0)
(0 0.0478841 0)
(1.19689e-20 0.0479645 -0)
(0 0.0480449 0)
(0 0.0481253 0)
(0 0.0482057 0)
(3.0821e-20 0.0482861 -0)
(3.07698e-20 0.0483665 -0)
(0 0.0484469 0)
(0 0.0485273 0)
(0 0.0486078 0)
(0 0.0486882 0)
(0 0.0487686 0)
(0 0.048849 0)
(0 0.0489294 0)
(0 0.0490098 0)
(0 0.0490902 0)
(0 0.0491706 0)
(0 0.049251 0)
(0 0.0493314 0)
(3.36639e-20 0.0494119 -0)
(0 0.0494923 0)
(0 0.0495727 0)
(0 0.0496531 0)
(0 0.0497335 0)
(0 0.0498139 0)
(0 0.0498943 0)
(0 0.0499747 0)
(0 0.0500551 0)
(0 0.0501355 0)
(-2.96365e-20 0.050216 0)
(-2.95892e-20 0.0502964 0)
(0 0.0503768 0)
(0 0.0504572 0)
(0 0.0505376 0)
(-2.94011e-20 0.050618 0)
(0 0.0506984 0)
(0 0.0507788 0)
(2.57166e-20 0.0508592 -0)
(0 0.0509396 0)
(0 0.0510201 0)
(0 0.0511005 0)
(0 0.0511809 0)
(0 0.0512613 0)
(-2.89867e-20 0.0513417 0)
(0 0.0514221 0)
(0 0.0515025 0)
(0 0.0515829 0)
(0 0.0516633 0)
(0 0.0517437 0)
(0 0.0518241 0)
(-2.86724e-20 0.0519046 0)
(0 0.051985 0)
(-2.85838e-20 0.0520654 0)
(0 0.0521458 0)
(3.54521e-21 0.0522262 -0)
(0 0.0523066 0)
(0 0.052387 0)
(0 0.0524674 0)
(2.83214e-20 0.0525478 -0)
(0 0.0526282 0)
(2.8235e-20 0.0527087 -0)
(0 0.0527891 0)
(2.81491e-20 0.0528695 -0)
(0 0.0529499 0)
(2.80637e-20 0.0530303 -0)
(0 0.0531107 0)
(0 0.0531911 0)
(0 0.0532715 0)
(2.78945e-20 0.0533519 -0)
(0 0.0534323 0)
(5.56214e-20 0.0535128 -0)
(5.55379e-20 0.0535932 -0)
(-3.54528e-21 0.0536736 0)
(0 0.053754 0)
(5.52891e-20 0.0538344 -0)
(0 0.0539148 0)
(0 0.0539952 0)
(5.50424e-20 0.0540756 -0)
(0 0.054156 0)
(2.74396e-20 0.0542364 -0)
(5.4798e-20 0.0543169 -0)
(2.73585e-20 0.0543973 -0)
(0 0.0544777 0)
(5.45557e-20 0.0545581 -0)
(0 0.0546385 0)
(0 0.0547189 0)
(0 0.0547993 0)
(5.4236e-20 0.0548797 -0)
(0 0.0549601 0)
(2.70387e-20 0.0550405 -0)
(3.54535e-21 0.055121 -0)
(2.696e-20 0.0552014 -0)
(0 0.0552818 0)
(2.68817e-20 0.0553622 -0)
(0 0.0554426 0)
(2.68038e-20 0.055523 -0)
(0 0.0556034 0)
(0 0.0556838 0)
(2.66878e-20 0.0557642 -0)
(5.32988e-20 0.0558446 -0)
(5.32222e-20 0.055925 -0)
(0 0.0560055 0)
(5.30696e-20 0.0560859 -0)
(0 0.0561663 0)
(2.64589e-20 0.0562467 -0)
(0 0.0563271 0)
(2.63835e-20 0.0564075 -0)
(0 0.0564879 0)
(-3.54542e-21 0.0565683 0)
(0 0.0566487 0)
(2.62339e-20 0.0567291 -0)
(0 0.0568096 0)
(2.61597e-20 0.05689 -0)
(0 0.0569704 0)
(2.6086e-20 0.0570508 -0)
(0 0.0571312 0)
(0 0.0572116 0)
(2.59762e-20 0.057292 -0)
(5.18795e-20 0.0573724 -0)
(2.59035e-20 0.0574528 -0)
(0 0.0575332 0)
(5.16623e-20 0.0576137 -0)
(0 0.0576941 0)
(2.57592e-20 0.0577745 -0)
(0 0.0578549 0)
(5.13755e-20 0.0579353 -0)
(-4.77588e-20 0.0580157 0)
(2.56166e-20 0.0580961 -0)
(0 0.0581765 0)
(2.55459e-20 0.0582569 -0)
(0 0.0583373 0)
(5.09512e-20 0.0584178 -0)
(2.54406e-20 0.0584982 -0)
(2.54057e-20 0.0585786 -0)
(0 0.058659 0)
(2.53361e-20 0.0587394 -0)
(2.53015e-20 0.0588198 -0)
(0 0.0589002 0)
(2.52325e-20 0.0589806 -0)
(0 0.059061 0)
(2.51639e-20 0.0591414 -0)
(0 0.0592219 0)
(2.50956e-20 0.0593023 -0)
(-5.36688e-20 0.0593827 0)
(2.50277e-20 0.0594631 -0)
(0 0.0595435 0)
(2.49602e-20 0.0596239 -0)
(0 0.0597043 0)
(2.48931e-20 0.0597847 -0)
(0 0.0598651 0)
(2.48263e-20 0.0599455 -0)
(2.47931e-20 0.060026 -0)
(2.47599e-20 0.0601064 -0)
(0 0.0601868 0)
(2.46938e-20 0.0602672 -0)
(2.46609e-20 0.0603476 -0)
(0 0.060428 0)
(4.91907e-20 0.0605084 -0)
(0 0.0605888 0)
(2.45302e-20 0.0606692 -0)
(2.44977e-20 0.0607496 -0)
(3.54559e-21 0.06083 -0)
(0 0.0609105 0)
(4.88016e-20 0.0609909 -0)
(0 0.0610713 0)
(0 0.0611517 0)
(0 0.0612321 0)
(2.42728e-20 0.0613125 -0)
(0 0.0613929 0)
(0 0.0614733 0)
(0 0.0615537 0)
(2.41461e-20 0.0616341 -0)
(0 0.0617146 0)
(2.40833e-20 0.061795 -0)
(0 0.0618754 0)
(4.80416e-20 0.0619558 -0)
(0 0.0620362 0)
(0 0.0621166 0)
(2.39276e-20 0.062197 -0)
(-3.54565e-21 0.0622774 0)
(2.38659e-20 0.0623578 -0)
(0 0.0624382 0)
(2.38045e-20 0.0625187 -0)
(2.37739e-20 0.0625991 -0)
(2.37434e-20 0.0626795 -0)
(0 0.0627599 0)
(4.73654e-20 0.0628403 -0)
(0 0.0629207 0)
(2.36222e-20 0.0630011 -0)
(0 0.0630815 0)
(4.71242e-20 0.0631619 -0)
(0 0.0632423 0)
(4.70045e-20 0.0633228 -0)
(0 0.0634032 0)
(2.34427e-20 0.0634836 -0)
(0 0.063564 0)
(0 0.0636444 0)
(-4.31622e-20 0.0637248 0)
(0 0.0638052 0)
(2.32952e-20 0.0638856 -0)
(0 0.063966 0)
(4.64734e-20 0.0640464 -0)
(0 0.0641269 0)
(2.31785e-20 0.0642073 -0)
(0 0.0642877 0)
(4.62411e-20 0.0643681 -0)
(0 0.0644485 0)
(2.3063e-20 0.0645289 -0)
(0 0.0646093 0)
(4.60112e-20 0.0646897 -0)
(0 0.0647701 0)
(0 0.0648505 0)
(0 0.0649309 0)
(4.57836e-20 0.0650114 -0)
(0 0.0650918 0)
(-2.63811e-20 0.0651722 0)
(2.28072e-20 0.0652526 -0)
(0 0.065333 0)
(2.27511e-20 0.0654134 -0)
(0 0.0654938 0)
(4.53906e-20 0.0655742 -0)
(0 0.0656546 0)
(2.26398e-20 0.065735 -0)
(0 0.0658155 0)
(4.51691e-20 0.0658959 -0)
(2.2557e-20 0.0659763 -0)
(2.25295e-20 0.0660567 -0)
(0 0.0661371 0)
(4.49496e-20 0.0662175 -0)
(0 0.0662979 0)
(0 0.0663783 0)
(0 0.0664587 0)
(4.47324e-20 0.0665391 -0)
(-4.11326e-20 0.0666196 0)
(0 0.0667 0)
(4.45708e-20 0.0667804 -0)
(0 0.0668608 0)
(4.44637e-20 0.0669412 -0)
(0 0.0670216 0)
(0 0.067102 0)
(0 0.0671824 0)
(4.42511e-20 0.0672628 -0)
(0 0.0673432 0)
(2.20728e-20 0.0674237 -0)
(2.20465e-20 0.0675041 -0)
(4.40405e-20 0.0675845 -0)
(0 0.0676649 0)
(4.39359e-20 0.0677453 -0)
(0 0.0678257 0)
(4.38319e-20 0.0679061 -0)
(-3.54584e-21 0.0679865 0)
(0 0.0680669 0)
(4.36767e-20 0.0681473 -0)
(4.36253e-20 0.0682278 -0)
(0 0.0683082 0)
(0 0.0683886 0)
(4.34716e-20 0.068469 -0)
(0 0.0685494 0)
(0 0.0686298 0)
(0 0.0687102 0)
(4.32683e-20 0.0687906 -0)
(0 0.068871 0)
(0 0.0689514 0)
(4.31171e-20 0.0690319 -0)
(4.30669e-20 0.0691123 -0)
(0 0.0691927 0)
(0 0.0692731 0)
(0 0.0693535 0)
(-3.93216e-20 0.0694339 0)
(4.28179e-20 0.0695143 -0)
(0 0.0695947 0)
(4.2719e-20 0.0696751 -0)
(4.26698e-20 0.0697555 -0)
(0 0.0698359 0)
(0 0.0699164 0)
(0 0.0699968 0)
(0 0.0700772 0)
(4.24253e-20 0.0701576 -0)
(0 0.070238 0)
(4.23282e-20 0.0703184 -0)
(0 0.0703988 0)
(4.22316e-20 0.0704792 -0)
(0 0.0705596 0)
(0 0.07064 0)
(0 0.0707205 0)
(0 0.0708009 0)
(-3.54593e-21 0.0708813 0)
(0 0.0709617 0)
(4.1897e-20 0.0710421 -0)
(0 0.0711225 0)
(0 0.0712029 0)
(4.17553e-20 0.0712833 -0)
(0 0.0713637 0)
(0 0.0714441 0)
(4.16144e-20 0.0715246 -0)
(0 0.071605 0)
(0 0.0716854 0)
(0 0.0717658 0)
(4.14281e-20 0.0718462 -0)
(0 0.0719266 0)
(4.13356e-20 0.072007 -0)
(0 0.0720874 0)
(4.12435e-20 0.0721678 -0)
(0 0.0722482 0)
(3.54597e-21 0.0723287 -0)
(4.11061e-20 0.0724091 -0)
(0 0.0724895 0)
(0 0.0725699 0)
(0 0.0726503 0)
(4.09243e-20 0.0727307 -0)
(0 0.0728111 0)
(4.0834e-20 0.0728915 -0)
(0 0.0729719 0)
(4.07441e-20 0.0730523 -0)
(0 0.0731328 0)
(0 0.0732132 0)
(0 0.0732936 0)
(4.05655e-20 0.073374 -0)
(0 0.0734544 0)
(0 0.0735348 0)
(0 0.0736152 0)
(4.03885e-20 0.0736956 -0)
(-4.38905e-20 0.073776 0)
(4.03005e-20 0.0738564 -0)
(0 0.0739368 0)
(4.0213e-20 0.0740173 -0)
(0 0.0740977 0)
(0 0.0741781 0)
(4.00823e-20 0.0742585 -0)
(0 0.0743389 0)
(0 0.0744193 0)
(0 0.0744997 0)
(3.99095e-20 0.0745801 -0)
(0 0.0746605 0)
(3.98236e-20 0.0747409 -0)
(0 0.0748214 0)
(3.97381e-20 0.0749018 -0)
(0 0.0749822 0)
(0 0.0750626 0)
(-3.60645e-20 0.075143 0)
(3.95682e-20 0.0752234 -0)
(0 0.0753038 0)
(0 0.0753842 0)
(0 0.0754646 0)
(0 0.075545 0)
(0 0.0756255 0)
(0 0.0757059 0)
(0 0.0757863 0)
(0 0.0758667 0)
(3.91911e-20 0.0759471 -0)
(0 0.0760275 0)
(3.91083e-20 0.0761079 -0)
(3.90671e-20 0.0761883 -0)
(3.90259e-20 0.0762687 -0)
(0 0.0763491 0)
(3.89438e-20 0.0764296 -0)
(0 0.07651 0)
(-3.54608e-21 0.0765904 0)
(0 0.0766708 0)
(3.87806e-20 0.0767512 -0)
(0 0.0768316 0)
(3.86995e-20 0.076912 -0)
(0 0.0769924 0)
(3.86187e-20 0.0770728 -0)
(0 0.0771532 0)
(3.85383e-20 0.0772337 -0)
(0 0.0773141 0)
(0 0.0773945 0)
(3.84183e-20 0.0774749 -0)
(0 0.0775553 0)
(3.83387e-20 0.0776357 -0)
(0 0.0777161 0)
(3.82595e-20 0.0777965 -0)
(0 0.0778769 0)
(3.81805e-20 0.0779573 -0)
(-3.45951e-20 0.0780378 0)
(0 0.0781182 0)
(0 0.0781986 0)
(0 0.078279 0)
(0 0.0783594 0)
(3.79457e-20 0.0784398 -0)
(0 0.0785202 0)
(3.78681e-20 0.0786006 -0)
(0 0.078681 0)
(0 0.0787614 0)
(0 0.0788418 0)
(0 0.0789223 0)
(3.76754e-20 0.0790027 -0)
(0 0.0790831 0)
(3.75988e-20 0.0791635 -0)
(0 0.0792439 0)
(3.75226e-20 0.0793243 -0)
(0 0.0794047 0)
(-3.54614e-21 0.0794851 0)
(0 0.0795655 0)
(0 0.0796459 0)
(0 0.0797264 0)
(3.72958e-20 0.0798068 -0)
(3.72582e-20 0.0798872 -0)
(3.72208e-20 0.0799676 -0)
(0 0.080048 0)
(3.7146e-20 0.0801284 -0)
(0 0.0802088 0)
(0 0.0802892 0)
(0 0.0803696 0)
(3.69975e-20 0.08045 -0)
(0 0.0805305 0)
(0 0.0806109 0)
(3.68869e-20 0.0806913 -0)
(0 0.0807717 0)
(3.68136e-20 0.0808521 -0)
(-3.32308e-20 0.0809325 0)
(0 0.0810129 0)
(0 0.0810933 0)
(3.66677e-20 0.0811737 -0)
(0 0.0812541 0)
(3.65952e-20 0.0813346 -0)
(3.6559e-20 0.081415 -0)
(3.6523e-20 0.0814954 -0)
(0 0.0815758 0)
(3.6451e-20 0.0816562 -0)
(0 0.0817366 0)
(3.63794e-20 0.081817 -0)
(0 0.0818974 0)
(3.6308e-20 0.0819778 -0)
(0 0.0820582 0)
(3.62369e-20 0.0821387 -0)
(3.62015e-20 0.0822191 -0)
(-3.97123e-20 0.0822995 0)
(3.61308e-20 0.0823799 -0)
(0 0.0824603 0)
(0 0.0825407 0)
(0 0.0826211 0)
(3.59903e-20 0.0827015 -0)
(0 0.0827819 0)
(3.59205e-20 0.0828623 -0)
(3.58856e-20 0.0829428 -0)
(3.58509e-20 0.0830232 -0)
(0 0.0831036 0)
(3.57816e-20 0.083184 -0)
(0 0.0832644 0)
(3.57125e-20 0.0833448 -0)
(0 0.0834252 0)
(3.56438e-20 0.0835056 -0)
(0 0.083586 0)
(3.55752e-20 0.0836664 -0)
(-3.19948e-20 0.0837468 0)
(0 0.0838273 0)
(3.5473e-20 0.0839077 -0)
(0 0.0839881 0)
(3.54051e-20 0.0840685 -0)
(0 0.0841489 0)
(3.53375e-20 0.0842293 -0)
(0 0.0843097 0)
(3.52702e-20 0.0843901 -0)
(0 0.0844705 0)
(3.52031e-20 0.0845509 -0)
(0 0.0846314 0)
(3.51362e-20 0.0847118 -0)
(0 0.0847922 0)
(3.50697e-20 0.0848726 -0)
(0 0.084953 0)
(3.50033e-20 0.0850334 -0)
(0 0.0851138 0)
(-3.84835e-20 0.0851942 0)
(3.49043e-20 0.0852746 -0)
(0 0.085355 0)
(3.48386e-20 0.0854355 -0)
(0 0.0855159 0)
(3.47732e-20 0.0855963 -0)
(0 0.0856767 0)
(3.4708e-20 0.0857571 -0)
(0 0.0858375 0)
(3.4643e-20 0.0859179 -0)
(0 0.0859983 0)
(3.45783e-20 0.0860787 -0)
(0 0.0861591 0)
(3.45138e-20 0.0862396 -0)
(3.44816e-20 0.08632 -0)
(3.44495e-20 0.0864004 -0)
(0 0.0864808 0)
(3.43855e-20 0.0865612 -0)
(-3.08073e-20 0.0866416 0)
(0 0.086722 0)
(3.429e-20 0.0868024 -0)
(0 0.0868828 0)
(3.42266e-20 0.0869632 -0)
(0 0.0870437 0)
(3.41634e-20 0.0871241 -0)
(0 0.0872045 0)
(3.41004e-20 0.0872849 -0)
(0 0.0873653 0)
(0 0.0874457 0)
(0 0.0875261 0)
(3.39753e-20 0.0876065 -0)
(0 0.0876869 0)
(3.3913e-20 0.0877673 -0)
(3.3882e-20 0.0878477 -0)
(-3.73973e-20 0.0879282 0)
(3.382e-20 0.0880086 -0)
(0 0.088089 0)
(3.37584e-20 0.0881694 -0)
(0 0.0882498 0)
(3.36969e-20 0.0883302 -0)
(0 0.0884106 0)
(3.36357e-20 0.088491 -0)
(3.36051e-20 0.0885714 -0)
(3.35746e-20 0.0886518 -0)
(0 0.0887323 0)
(3.35138e-20 0.0888127 -0)
(0 0.0888931 0)
(0 0.0889735 0)
(0 0.0890539 0)
(3.33929e-20 0.0891343 -0)
(0 0.0892147 0)
(3.33328e-20 0.0892951 -0)
(0 0.0893755 0)
(3.32728e-20 0.0894559 -0)
(0 0.0895364 0)
(3.32131e-20 0.0896168 -0)
(0 0.0896972 0)
(3.31536e-20 0.0897776 -0)
(0 0.089858 0)
(3.30944e-20 0.0899384 -0)
(0 0.0900188 0)
(0 0.0900992 0)
(-7.09271e-21 0.0901796 0)
(0 0.09026 0)
(3.29471e-20 0.0903405 -0)
(3.29178e-20 0.0904209 -0)
(3.28885e-20 0.0905013 -0)
(0 0.0905817 0)
(6.56604e-20 0.0906621 -0)
(0 0.0907425 0)
(3.27721e-20 0.0908229 -0)
(0 0.0909033 0)
(0 0.0909837 0)
(3.26852e-20 0.0910641 -0)
(0 0.0911446 0)
(0 0.091225 0)
(0 0.0913054 0)
(3.25702e-20 0.0913858 -0)
(0 0.0914662 0)
(3.2513e-20 0.0915466 -0)
(0 0.091627 0)
(3.2456e-20 0.0917074 -0)
(0 0.0917878 0)
(3.23992e-20 0.0918682 -0)
(0 0.0919487 0)
(3.23425e-20 0.0920291 -0)
(0 0.0921095 0)
(3.22861e-20 0.0921899 -0)
(0 0.0922703 0)
(0 0.0923507 0)
(0 0.0924311 0)
(3.21739e-20 0.0925115 -0)
(0 0.0925919 0)
(0 0.0926723 0)
(0 0.0927527 0)
(3.20624e-20 0.0928332 -0)
(0 0.0929136 0)
(3.20069e-20 0.092994 -0)
(3.90721e-20 0.0930744 -0)
(0 0.0931548 0)
(3.19241e-20 0.0932352 -0)
(0 0.0933156 0)
(3.18692e-20 0.093396 -0)
(0 0.0934764 0)
(3.18144e-20 0.0935568 -0)
(0 0.0936373 0)
(3.17598e-20 0.0937177 -0)
(3.17326e-20 0.0937981 -0)
(3.17054e-20 0.0938785 -0)
(0 0.0939589 0)
(3.16512e-20 0.0940393 -0)
(0 0.0941197 0)
(0 0.0942001 0)
(3.15702e-20 0.0942805 -0)
(0 0.0943609 0)
(3.15164e-20 0.0944414 -0)
(0 0.0945218 0)
(3.14628e-20 0.0946022 -0)
(0 0.0946826 0)
(3.14094e-20 0.094763 -0)
(0 0.0948434 0)
(3.13562e-20 0.0949238 -0)
(3.13297e-20 0.0950042 -0)
(6.26064e-20 0.0950846 -0)
(0 0.095165 0)
(3.12503e-20 0.0952455 -0)
(3.1224e-20 0.0953259 -0)
(3.11977e-20 0.0954063 -0)
(0 0.0954867 0)
(3.11452e-20 0.0955671 -0)
(0 0.0956475 0)
(3.10928e-20 0.0957279 -0)
(0 0.0958083 0)
(3.10407e-20 0.0958887 -0)
(-7.0929e-21 0.0959691 0)
(0 0.0960496 0)
(0 0.09613 0)
(0 0.0962104 0)
(6.18222e-20 0.0962908 -0)
(0 0.0963712 0)
(0 0.0964516 0)
(0 0.096532 0)
(6.16164e-20 0.0966124 -0)
(0 0.0966928 0)
(0 0.0967732 0)
(6.14629e-20 0.0968537 -0)
(0 0.0969341 0)
(0 0.0970145 0)
(0 0.0970949 0)
(0 0.0971753 0)
(6.12088e-20 0.0972557 -0)
(0 0.0973361 0)
(0 0.0974165 0)
(0 0.0974969 0)
(6.10071e-20 0.0975773 -0)
(6.09568e-20 0.0976577 -0)
(0 0.0977382 0)
(6.08566e-20 0.0978186 -0)
(0 0.097899 0)
(0 0.0979794 0)
(0 0.0980598 0)
(6.06572e-20 0.0981402 -0)
(0 0.0982206 0)
(6.05579e-20 0.098301 -0)
(0 0.0983814 0)
(6.0459e-20 0.0984618 -0)
(6.04097e-20 0.0985423 -0)
(0 0.0986227 0)
(6.03113e-20 0.0987031 -0)
(7.09299e-21 0.0987835 -0)
(0 0.0988639 0)
(0 0.0989443 0)
(0 0.0990247 0)
(6.00666e-20 0.0991051 -0)
(0 0.0991855 0)
(0 0.0992659 0)
(5.99207e-20 0.0993464 -0)
(0 0.0994268 0)
(0 0.0995072 0)
(0 0.0995876 0)
(0 0.099668 0)
(0 0.0997484 0)
(5.96312e-20 0.0998288 -0)
(5.95832e-20 0.0999092 -0)
(5.95352e-20 0.0999896 -0)
(0 0.10007 0)
(0 0.10015 0)
(0 0.100231 0)
(0 0.100311 0)
(0 0.100392 0)
(0 0.100472 0)
(0 0.100553 0)
(0 0.100633 0)
(0 0.100713 0)
(0 0.100794 0)
(0 0.100874 0)
(0 0.100955 0)
(0 0.101035 0)
(0 0.101115 0)
(0 0.101196 0)
(5.87789e-20 0.101276 -0)
(0 0.101357 0)
(0 0.101437 0)
(0 0.101517 0)
(0 0.101598 0)
(-7.09307e-21 0.101678 0)
(0 0.101759 0)
(0 0.101839 0)
(5.84079e-20 0.101919 -0)
(0 0.102 0)
(0 0.10208 0)
(0 0.102161 0)
(0 0.102241 0)
(0 0.102322 0)
(0 0.102402 0)
(5.80872e-20 0.102482 -0)
(0 0.102563 0)
(0 0.102643 0)
(0 0.102724 0)
(5.79054e-20 0.102804 -0)
(0 0.102884 0)
(0 0.102965 0)
(0 0.103045 0)
(5.77248e-20 0.103126 -0)
(5.76798e-20 0.103206 -0)
(0 0.103286 0)
(5.75901e-20 0.103367 -0)
(0 0.103447 0)
(0 0.103528 0)
(5.7456e-20 0.103608 -0)
(5.74115e-20 0.103688 -0)
(0 0.103769 0)
(0 0.103849 0)
(0 0.10393 0)
(0 0.10401 0)
(0 0.104091 0)
(0 0.104171 0)
(0 0.104251 0)
(0 0.104332 0)
(0 0.104412 0)
(7.09315e-21 0.104493 -0)
(5.69259e-20 0.104573 -0)
(5.68821e-20 0.104653 -0)
(0 0.104734 0)
(0 0.104814 0)
(0 0.104895 0)
(-1.13416e-19 0.104975 0)
(-1.13329e-19 0.105055 0)
(0 0.105136 0)
(-5.65778e-20 0.105216 0)
(-5.65346e-20 0.105297 0)
(0 0.105377 0)
(-5.64484e-20 0.105458 0)
(-5.64054e-20 0.105538 0)
(-1.12725e-19 0.105618 0)
(0 0.105699 0)
(-5.62768e-20 0.105779 0)
(-5.6234e-20 0.10586 0)
(-5.61913e-20 0.10594 0)
(0 0.10602 0)
(-1.12212e-19 0.106101 0)
(-5.60637e-20 0.106181 0)
(-1.12042e-19 0.106262 0)
(-1.11958e-19 0.106342 0)
(-5.59366e-20 0.106422 0)
(-5.58944e-20 0.106503 0)
(0 0.106583 0)
(-5.58101e-20 0.106664 0)
(-1.11536e-19 0.106744 0)
(-5.57261e-20 0.106824 0)
(-5.56841e-20 0.106905 0)
(-5.56423e-20 0.106985 0)
(-5.56005e-20 0.107066 0)
(0 0.107146 0)
(-5.55171e-20 0.107227 0)
(-5.54755e-20 0.107307 0)
(-7.09322e-21 0.107387 0)
(-5.53925e-20 0.107468 0)
(0 0.107548 0)
(-5.53097e-20 0.107629 0)
(-5.52684e-20 0.107709 0)
(0 0.107789 0)
(-5.5186e-20 0.10787 0)
(-5.51449e-20 0.10795 0)
(-1.10208e-19 0.108031 0)
(-5.50629e-20 0.108111 0)
(-1.10044e-19 0.108191 0)
(-5.49811e-20 0.108272 0)
(-5.49403e-20 0.108352 0)
(0 0.108433 0)
(-5.48589e-20 0.108513 0)
(-5.48183e-20 0.108593 0)
(0 0.108674 0)
(-5.47372e-20 0.108754 0)
(-1.09394e-19 0.108835 0)
(-1.09313e-19 0.108915 0)
(0 0.108996 0)
(-5.45758e-20 0.109076 0)
(0 0.109156 0)
(-1.08991e-19 0.109237 0)
(-5.44554e-20 0.109317 0)
(-5.44153e-20 0.109398 0)
(-5.43754e-20 0.109478 0)
(0 0.109558 0)
(-1.08591e-19 0.109639 0)
(-5.42558e-20 0.109719 0)
(-5.42161e-20 0.1098 0)
(0 0.10988 0)
(0 0.10996 0)
(-5.40972e-20 0.110041 0)
(-5.40577e-20 0.110121 0)
(0 0.110202 0)
(7.09329e-21 0.110282 -0)
(0 0.110363 0)
(-5.39003e-20 0.110443 0)
(-1.07722e-19 0.110523 0)
(-5.38219e-20 0.110604 0)
(-1.07566e-19 0.110684 0)
(0 0.110765 0)
(-1.0741e-19 0.110845 0)
(-5.36659e-20 0.110925 0)
(-5.3627e-20 0.111006 0)
(0 0.111086 0)
(0 0.111167 0)
(-1.07021e-19 0.111247 0)
(-5.34721e-20 0.111327 0)
(-5.34335e-20 0.111408 0)