/*--------------------------------*- C++ -*----------------------------------*\
| =========                 |                                                 |
| \\      /  F ield         | OpenFOAM: The Open Source CFD Toolbox           |
|  \\    /   O peration     | Version:  2206                                  |
|   \\  /    A nd           | Website:  www.openfoam.com                      |
|    \\/     M anipulation  |                                                 |
\*---------------------------------------------------------------------------*/
FoamFile
{
    version     2.0;
    format      ascii;
    arch        "LSB;label=32;scalar=64";
    class       volScalarField;
    location    "6000";
    object      p;
}
// * * * * * * * * * * * * * * * * * * * * * * * * * * * * * * * * * * * * * //

dimensions      [0 2 -2 0 0 0 0];

internalField   nonuniform List<scalar> 
100
(
-1.04515946e-09
0.0390756371
0.0574970885
0.0751211125
0.0889686598
0.100506034
0.110145777
0.118292956
0.125240857
0.131215
0.136390196
0.140903719
0.144864566
0.148360166
0.151461303
0.154225784
0.156701188
0.158926965
0.160936047
0.162756099
0.164410501
0.165919117
0.167298915
0.168564456
0.169728295
0.170801305
0.171792937
0.172711439
0.173564039
0.174357088
0.175096185
0.175786287
0.176431788
0.177036601
0.177604214
0.178137749
0.178640003
0.179113494
0.179560486
0.179983025
0.180382961
0.180761972
0.181121582
0.181463177
0.181788021
0.182097267
0.18239197
0.182673098
0.182941537
0.183198103
0.183443545
0.183678556
0.183903771
0.184119781
0.184327131
0.184526325
0.184717832
0.184902087
0.185079493
0.185250428
0.185415239
0.185574255
0.185727781
0.1858761
0.186019479
0.186158168
0.1862924
0.186422395
0.186548356
0.186670479
0.186788943
0.186903921
0.187015572
0.187124048
0.187229492
0.187332039
0.187431816
0.187528943
0.187623534
0.187715697
0.187805532
0.187893138
0.187978606
0.188062021
0.188143467
0.188223022
0.18830076
0.188376752
0.188451065
0.188523762
0.188594906
0.188664556
0.188732768
0.188799574
0.188864977
0.188929118
0.188992735
0.189056597
0.189115453
0.189149538
)
;

boundaryField
{
    left
    {
        type            wedge;
    }
    right
    {
        type            wedge;
    }
    outerWall
    {
        type            zeroGradient;
    }
    innerWall
    {
        type            zeroGradient;
    }
    frontAndBack
    {
        type            empty;
    }
}


// ************************************************************************* //
