/*--------------------------------*- C++ -*----------------------------------*\
| =========                 |                                                 |
| \\      /  F ield         | OpenFOAM: The Open Source CFD Toolbox           |
|  \\    /   O peration     | Version:  2206                                  |
|   \\  /    A nd           | Website:  www.openfoam.com                      |
|    \\/     M anipulation  |                                                 |
\*---------------------------------------------------------------------------*/
FoamFile
{
    version     2.0;
    format      ascii;
    arch        "LSB;label=32;scalar=64";
    class       surfaceScalarField;
    location    "6000";
    object      phi;
}
// * * * * * * * * * * * * * * * * * * * * * * * * * * * * * * * * * * * * * //

dimensions      [0 3 -1 0 0 0 0];

oriented        oriented;

internalField   nonuniform List<scalar> 
99
(
3.36065815e-10
6.46139072e-10
9.33617892e-10
1.20165802e-09
1.45273535e-09
1.68889769e-09
1.91183437e-09
2.12297385e-09
2.32351692e-09
2.51450225e-09
2.69681228e-09
2.87122724e-09
3.038413e-09
3.19897183e-09
3.35341669e-09
3.50222417e-09
3.64579602e-09
3.78451723e-09
3.91870645e-09
4.04868134e-09
4.17469669e-09
4.29701945e-09
4.4158544e-09
4.53143011e-09
4.6439115e-09
4.75349748e-09
4.86032033e-09
4.96455649e-09
5.06631126e-09
5.1657433e-09
5.26293523e-09
5.35803225e-09
5.45109758e-09
5.54226582e-09
5.63158339e-09
5.7191769e-09
5.80507819e-09
5.88940759e-09
5.97218393e-09
6.05352305e-09
6.13343226e-09
6.2120239e-09
6.2892949e-09
6.36535527e-09
6.44019255e-09
6.51391505e-09
6.5865018e-09
6.65806014e-09
6.72856129e-09
6.79811208e-09
6.86667657e-09
6.93436149e-09
7.00112433e-09
7.06707201e-09
7.13215579e-09
7.19648334e-09
7.25999997e-09
7.32281437e-09
7.38486616e-09
7.44626534e-09
7.50694608e-09
7.56701988e-09
7.62641563e-09
7.68524675e-09
7.74343675e-09
7.80110148e-09
7.85815951e-09
7.91472818e-09
7.97072175e-09
8.0262591e-09
8.08125218e-09
8.13581851e-09
8.18986886e-09
8.2435199e-09
8.29668452e-09
8.34947289e-09
8.40180124e-09
8.45377531e-09
8.50531828e-09
8.55652407e-09
8.60732419e-09
8.65780398e-09
8.70790568e-09
8.75769967e-09
8.80714091e-09
8.85628692e-09
8.90510469e-09
8.95363864e-09
9.00186565e-09
9.049821e-09
9.09748924e-09
9.14489752e-09
9.19203683e-09
9.23892828e-09
9.28556904e-09
9.33197358e-09
9.37814398e-09
9.42408845e-09
9.46981499e-09
)
;

boundaryField
{
    left
    {
        type            wedge;
        value           nonuniform List<scalar> 
100
(
1.3413016e-05
1.23756583e-05
1.14739396e-05
1.0698016e-05
1.00210791e-05
9.42569259e-06
8.89793034e-06
8.42696162e-06
8.00415682e-06
7.6225475e-06
7.27644674e-06
6.96116733e-06
6.67281166e-06
6.408113e-06
6.16431229e-06
5.93906289e-06
5.73035747e-06
5.53646788e-06
5.35589821e-06
5.18734804e-06
5.02968062e-06
4.88189788e-06
4.74312084e-06
4.61257147e-06
4.48955864e-06
4.37346709e-06
4.26374659e-06
4.15990347e-06
4.06149436e-06
3.9681192e-06
3.87941604e-06
3.79505736e-06
3.71474537e-06
3.63820869e-06
3.56520018e-06
3.49549362e-06
3.42888156e-06
3.36517403e-06
3.30419605e-06
3.24578661e-06
3.18979688e-06
3.13608972e-06
3.08453803e-06
3.03502379e-06
2.98743787e-06
2.94167862e-06
2.89765127e-06
2.85526788e-06
2.81444621e-06
2.77510927e-06
2.73718542e-06
2.7006074e-06
2.66531201e-06
2.63124031e-06
2.59833677e-06
2.56654902e-06
2.53582812e-06
2.50612781e-06
2.47740434e-06
2.44961673e-06
2.42272615e-06
2.39669573e-06
2.37149092e-06
2.34707883e-06
2.32342838e-06
2.30050992e-06
2.27829564e-06
2.25675898e-06
2.23587455e-06
2.21561855e-06
2.19596815e-06
2.17690153e-06
2.15839815e-06
2.14043832e-06
2.12300315e-06
2.10607484e-06
2.08963633e-06
2.07367113e-06
2.05816381e-06
2.04309943e-06
2.02846362e-06
2.01424285e-06
2.00042406e-06
1.98699461e-06
1.97394262e-06
1.96125661e-06
1.9489254e-06
1.93693855e-06
1.92528584e-06
1.91395757e-06
1.90294422e-06
1.89223691e-06
1.88182697e-06
1.87170593e-06
1.86186589e-06
1.85229911e-06
1.84299798e-06
1.83395543e-06
1.82516466e-06
1.81661824e-06
)
;
    }
    right
    {
        type            wedge;
        value           nonuniform List<scalar> 
100
(
-1.3413352e-05
-1.23759684e-05
-1.14742271e-05
-1.06982841e-05
-1.00213302e-05
-9.42592875e-06
-8.89815328e-06
-8.42717275e-06
-8.00435736e-06
-7.62273848e-06
-7.27662905e-06
-6.96134174e-06
-6.67297885e-06
-6.40827356e-06
-6.16446674e-06
-5.93921169e-06
-5.73050105e-06
-5.5366066e-06
-5.35603241e-06
-5.18747801e-06
-5.02980663e-06
-4.8820202e-06
-4.74323967e-06
-4.61268704e-06
-4.48967112e-06
-4.37357667e-06
-4.26385342e-06
-4.1600077e-06
-4.06159612e-06
-3.96821862e-06
-3.87951324e-06
-3.79515245e-06
-3.71483844e-06
-3.63829985e-06
-3.5652895e-06
-3.4955812e-06
-3.42896747e-06
-3.36525834e-06
-3.30427884e-06
-3.24586794e-06
-3.1898768e-06
-3.1361683e-06
-3.08461531e-06
-3.03509984e-06
-2.98751272e-06
-2.94175232e-06
-2.89772387e-06
-2.85533942e-06
-2.81451673e-06
-2.7751788e-06
-2.737254e-06
-2.70067506e-06
-2.66537879e-06
-2.63130624e-06
-2.59840187e-06
-2.56661332e-06
-2.53589165e-06
-2.5061906e-06
-2.47746641e-06
-2.4496781e-06
-2.42278685e-06
-2.39675578e-06
-2.37155034e-06
-2.34713763e-06
-2.32348659e-06
-2.30056756e-06
-2.27835273e-06
-2.25681552e-06
-2.23593057e-06
-2.21567406e-06
-2.19602317e-06
-2.17695607e-06
-2.15845223e-06
-2.14049195e-06
-2.12305634e-06
-2.10612761e-06
-2.08968868e-06
-2.07372309e-06
-2.05821537e-06
-2.04315062e-06
-2.02851444e-06
-2.01429332e-06
-2.00047418e-06
-1.98704439e-06
-1.97399208e-06
-1.96130575e-06
-1.94897423e-06
-1.93698708e-06
-1.92533408e-06
-1.91400552e-06
-1.9029919e-06
-1.89228432e-06
-1.88187412e-06
-1.87175283e-06
-1.86191254e-06
-1.85234552e-06
-1.84304416e-06
-1.83400138e-06
-1.82521039e-06
-1.81666376e-06
)
;
    }
    outerWall
    {
        type            calculated;
        value           uniform 9.51533034e-09;
    }
    innerWall
    {
        type            calculated;
        value           uniform 0;
    }
    frontAndBack
    {
        type            empty;
        value           nonuniform List<scalar> 0();
    }
}


// ************************************************************************* //
