/*--------------------------------*- C++ -*----------------------------------*\
| =========                 |                                                 |
| \\      /  F ield         | OpenFOAM: The Open Source CFD Toolbox           |
|  \\    /   O peration     | Version:  2206                                  |
|   \\  /    A nd           | Website:  www.openfoam.com                      |
|    \\/     M anipulation  |                                                 |
\*---------------------------------------------------------------------------*/
FoamFile
{
    version     2.0;
    format      ascii;
    arch        "LSB;label=32;scalar=64";
    class       volVectorField;
    location    "6000";
    object      U;
}
// * * * * * * * * * * * * * * * * * * * * * * * * * * * * * * * * * * * * * //

dimensions      [0 1 -1 0 0 0 0];

internalField   nonuniform List<vector> 
100
(
(0.0121939764 0.596148978 0)
(-0.0038752872 0.550043039 0)
(0.000931354037 0.509965649 0)
(-0.000129146562 0.475479293 0)
(0.000104271613 0.445392454 0)
(8.84718905e-05 0.418930167 0)
(0.000107158199 0.395473479 0)
(0.000118281584 0.37454101 0)
(0.000127653997 0.355749216 0)
(0.00013519105 0.338788377 7.34811141e-20)
(0.000141298644 0.323405735 -7.75653815e-20)
(0.000146236313 0.309392965 0)
(0.000150216363 0.29657684 0)
(0.000153407073 0.28481216 8.709043e-20)
(0.00015594329 0.273976295 0)
(0.000157934123 0.263964966 0)
(0.00015946848 0.254688937 0)
(0.000160619323 0.2460714 0)
(0.000161446873 0.238045886 0)
(0.000162001161 0.23055458 0)
(0.000162323917 0.223546958 0)
(0.00016245016 0.216978677 0)
(0.000162409362 0.210810654 0)
(0.000162226472 0.205008309 0)
(0.000161922643 0.19954094 0)
(0.000161515914 0.194381187 0)
(0.000161021666 0.189504593 0)
(0.000160453107 0.184889232 0)
(0.000159821557 0.180515384 0)
(0.000159136783 0.176365269 0)
(0.000158407187 0.172422812 0)
(0.00015764006 0.168673443 0)
(0.000156841691 0.165103928 0)
(0.000156017556 0.161702216 0)
(0.000155172388 0.158457312 0)
(0.000154310324 0.155359162 0)
(0.000153434945 0.152398555 0)
(0.000152549386 0.149567038 0)
(0.000151656362 0.146856838 0)
(0.000150758254 0.144260795 0)
(0.000149857126 0.141772303 0)
(0.000148954788 0.139385258 0)
(0.000148052802 0.137094012 0)
(0.000147152543 0.134893327 0)
(0.000146255194 0.132778344 0)
(0.000145361794 0.130744546 0)
(0.000144473231 0.128787728 0)
(0.000143590284 0.126903975 0)
(0.000142713616 0.12508963 0)
(0.000141843805 0.123341281 0)
(0.000140981336 0.121655734 0)
(0.000140126632 0.120030001 0)
(0.000139280042 0.11846128 0)
(0.000138441865 0.116946945 0)
(0.000137612341 0.115484526 0)
(0.000136791677 0.114071704 0)
(0.000135980029 0.112706296 0)
(0.000135177529 0.111386247 0)
(0.000134384268 0.110109619 0)
(0.00013360032 0.108874583 0)
(0.000132825725 0.107679414 0)
(0.00013206051 0.10652248 0)
(0.000131304675 0.105402238 0)
(0.000130558214 0.104317229 0)
(0.000129821094 0.103266069 0)
(0.000129093284 0.102247448 0)
(0.000128374731 0.101260122 7.39812401e-20)
(0.000127665378 0.10030291 0)
(0.00012696515 0.0993746928 0)
(0.000126273975 0.0984744033 0)
(0.000125591778 0.0976010284 0)
(0.000124918465 0.0967536036 7.07752699e-20)
(0.000124253943 0.0959312106 0)
(0.000123598116 0.0951329742 0)
(0.000122950905 0.09435806 0)
(0.000122312191 0.0936056722 -6.83541641e-20)
(0.000121681877 0.0928750511 0)
(0.000121059848 0.0921654712 0)
(0.00012044603 0.0914762394 0)
(0.000119840287 0.0908066929 0)
(0.000119242524 0.0901561979 0)
(0.000118652614 0.089524148 0)
(0.000118070484 0.0889099623 0)
(0.000117495991 0.0883130846 -6.38840769e-20)
(0.000116929051 0.0877329818 0)
(0.000116369531 0.0871691429 0)
(0.000115817366 0.0866210774 0)
(0.000115272439 0.0860883151 6.18255894e-20)
(0.000114734559 0.0855704041 0)
(0.000114203189 0.0850669108 0)
(0.000113678283 0.0845774183 0)
(0.000113164031 0.0841015259 5.98771197e-20)
(0.000112670113 0.0836388484 0)
(0.000112175914 0.0831890151 0)
(0.000111533757 0.0827516691 0)
(0.000110600572 0.0823264664 5.80324635e-20)
(0.000110528164 0.0819130742 0)
(0.000115507643 0.081511173 0)
(0.00012379206 0.0811204604 0)
(9.0087463e-05 0.080740612 0)
)
;

boundaryField
{
    left
    {
        type            wedge;
    }
    right
    {
        type            wedge;
    }
    outerWall
    {
        type            navierSlip;
        value           uniform (0 0.0805596534 0);
        slipLength      uniform 1;
        wallVelocity    uniform (0 0 0);
    }
    innerWall
    {
        type            rotatingWallVelocity;
        origin          (0 0 0);
        axis            (0 0 1);
        omega           constant 12.566;
        value           uniform (0 0.628204307 -0);
    }
    frontAndBack
    {
        type            empty;
    }
}


// ************************************************************************* //
