/*--------------------------------*- C++ -*----------------------------------*\
| =========                 |                                                 |
| \\      /  F ield         | OpenFOAM: The Open Source CFD Toolbox           |
|  \\    /   O peration     | Version:  2206                                  |
|   \\  /    A nd           | Website:  www.openfoam.com                      |
|    \\/     M anipulation  |                                                 |
\*---------------------------------------------------------------------------*/
FoamFile
{
    version     2.0;
    format      ascii;
    arch        "LSB;label=32;scalar=64";
    class       volScalarField;
    location    "5500";
    object      p;
}
// * * * * * * * * * * * * * * * * * * * * * * * * * * * * * * * * * * * * * //

dimensions      [0 2 -2 0 0 0 0];

internalField   nonuniform List<scalar> 
100
(
-6.30626676e-10
0.0390716986
0.057487945
0.0751049439
0.08894493
0.100474219
0.110105683
0.118244526
0.125184142
0.131150124
0.136317331
0.14082307
0.144776355
0.148264624
0.151358668
0.154116293
0.156585076
0.15880446
0.160807372
0.16262147
0.164270126
0.165773197
0.16714764
0.168408011
0.169566856
0.17063504
0.171622006
0.172535998
0.173384233
0.174173057
0.174908065
0.175594204
0.176235866
0.176836956
0.177400958
0.17793099
0.178429843
0.178900031
0.179343815
0.179763235
0.18016014
0.180536202
0.180892943
0.181231746
0.18155387
0.181860467
0.18215259
0.182431203
0.182697191
0.182951365
0.183194475
0.183427208
0.183650201
0.183864042
0.184069272
0.184266396
0.18445588
0.184638158
0.184813631
0.184982674
0.185145637
0.185302844
0.185454598
0.185601185
0.185742868
0.185879896
0.186012501
0.186140902
0.186265303
0.186385895
0.18650286
0.186616368
0.186726578
0.186833642
0.1869377
0.187038888
0.187137332
0.187233151
0.187326459
0.187417362
0.187505961
0.187592354
0.187676629
0.187758875
0.187839173
0.1879176
0.18799423
0.188069133
0.188142377
0.188214025
0.188284137
0.188352773
0.188419988
0.188485815
0.188550257
0.188613453
0.188676133
0.188739048
0.188797028
0.188830607
)
;

boundaryField
{
    left
    {
        type            wedge;
    }
    right
    {
        type            wedge;
    }
    outerWall
    {
        type            zeroGradient;
    }
    innerWall
    {
        type            zeroGradient;
    }
    frontAndBack
    {
        type            empty;
    }
}


// ************************************************************************* //
