/*--------------------------------*- C++ -*----------------------------------*\
| =========                 |                                                 |
| \\      /  F ield         | OpenFOAM: The Open Source CFD Toolbox           |
|  \\    /   O peration     | Version:  2206                                  |
|   \\  /    A nd           | Website:  www.openfoam.com                      |
|    \\/     M anipulation  |                                                 |
\*---------------------------------------------------------------------------*/
FoamFile
{
    version     2.0;
    format      ascii;
    arch        "LSB;label=32;scalar=64";
    class       surfaceScalarField;
    location    "5500";
    object      phi;
}
// * * * * * * * * * * * * * * * * * * * * * * * * * * * * * * * * * * * * * //

dimensions      [0 3 -1 0 0 0 0];

oriented        oriented;

internalField   nonuniform List<scalar> 
99
(
3.32100003e-10
6.3849518e-10
9.22545609e-10
1.18736937e-09
1.4354162e-09
1.66870887e-09
1.88891983e-09
2.09745924e-09
2.29551695e-09
2.48411739e-09
2.66413618e-09
2.83634163e-09
3.00139586e-09
3.15989059e-09
3.31233751e-09
3.45920321e-09
3.60089028e-09
3.73777385e-09
3.87017536e-09
3.99840224e-09
4.12271388e-09
4.24336647e-09
4.36057111e-09
4.47454481e-09
4.58546045e-09
4.69350453e-09
4.7988189e-09
4.90156651e-09
5.00186384e-09
5.09985496e-09
5.19563523e-09
5.28933412e-09
5.38102904e-09
5.47083772e-09
5.55882225e-09
5.64509118e-09
5.7296934e-09
5.81273004e-09
5.89423833e-09
5.97431377e-09
6.05298337e-09
6.13033802e-09
6.20639554e-09
6.28124347e-09
6.35489141e-09
6.42742415e-09
6.49884385e-09
6.56923345e-09
6.63858827e-09
6.70698987e-09
6.77442729e-09
6.84098123e-09
6.90663497e-09
6.97146867e-09
7.03546021e-09
7.09868969e-09
7.16112988e-09
7.22286112e-09
7.28385148e-09
7.34418151e-09
7.40381493e-09
7.46283272e-09
7.52119502e-09
7.57898253e-09
7.63615218e-09
7.69278493e-09
7.74883565e-09
7.8043835e-09
7.85938222e-09
7.91390959e-09
7.96792008e-09
8.02148704e-09
8.0745668e-09
8.127229e-09
8.1794335e-09
8.23124328e-09
8.28262215e-09
8.33362812e-09
8.38422916e-09
8.43447707e-09
8.48434357e-09
8.53387623e-09
8.58304957e-09
8.63190718e-09
8.68042513e-09
8.72864518e-09
8.77654486e-09
8.82416258e-09
8.87147794e-09
8.91852613e-09
8.96529146e-09
9.01180139e-09
9.05804709e-09
9.10404854e-09
9.14980362e-09
9.19532541e-09
9.24061681e-09
9.28568573e-09
9.33053933e-09
)
;

boundaryField
{
    left
    {
        type            wedge;
        value           nonuniform List<scalar> 
100
(
1.34125868e-05
1.23744805e-05
1.14720737e-05
1.06955126e-05
1.0017984e-05
9.42204621e-06
8.89376892e-06
8.42231768e-06
7.9990597e-06
7.61702379e-06
7.27052063e-06
6.95486091e-06
6.66614518e-06
6.40110506e-06
6.15698003e-06
5.93142218e-06
5.72242302e-06
5.52825335e-06
5.34741633e-06
5.1786107e-06
5.02069896e-06
4.87268236e-06
4.73368126e-06
4.60291709e-06
4.47969819e-06
4.36340884e-06
4.25349835e-06
4.14947268e-06
4.05088808e-06
3.95734416e-06
3.86847867e-06
3.78396379e-06
3.70350148e-06
3.62682012e-06
3.55367233e-06
3.4838317e-06
3.41709057e-06
3.35325881e-06
3.29216127e-06
3.23363677e-06
3.17753635e-06
3.12372273e-06
3.07206869e-06
3.0224561e-06
2.97477569e-06
2.92892574e-06
2.88481138e-06
2.84234456e-06
2.80144296e-06
2.76202953e-06
2.72403253e-06
2.68738464e-06
2.65202261e-06
2.6178874e-06
2.58492345e-06
2.55307832e-06
2.52230302e-06
2.49255125e-06
2.46377918e-06
2.43594582e-06
2.40901227e-06
2.38294164e-06
2.35769933e-06
2.33325241e-06
2.30956976e-06
2.28662171e-06
2.26438039e-06
2.24281923e-06
2.22191281e-06
2.20163729e-06
2.18196982e-06
2.16288853e-06
2.14437289e-06
2.12640317e-06
2.10896043e-06
2.09202688e-06
2.07558541e-06
2.05961953e-06
2.04411377e-06
2.02905319e-06
2.01442337e-06
2.00021078e-06
1.98640233e-06
1.97298536e-06
1.95994799e-06
1.94727869e-06
1.93496628e-06
1.9230003e-06
1.91137052e-06
1.9000672e-06
1.88908082e-06
1.87840248e-06
1.86802349e-06
1.85793537e-06
1.84813019e-06
1.83860019e-06
1.82933775e-06
1.82033575e-06
1.81158729e-06
1.80308463e-06
)
;
    }
    right
    {
        type            wedge;
        value           nonuniform List<scalar> 
100
(
-1.34129189e-05
-1.23747869e-05
-1.14723577e-05
-1.06957774e-05
-1.0018232e-05
-9.4222795e-06
-8.89398913e-06
-8.42252622e-06
-7.99925776e-06
-7.61721239e-06
-7.27070065e-06
-6.95503312e-06
-6.66631023e-06
-6.40126355e-06
-6.15713248e-06
-5.93156904e-06
-5.72256471e-06
-5.52839023e-06
-5.34754874e-06
-5.17873893e-06
-5.02082328e-06
-4.872803e-06
-4.73379846e-06
-4.60303106e-06
-4.47980911e-06
-4.36351688e-06
-4.25360367e-06
-4.14957542e-06
-4.05098839e-06
-3.95744215e-06
-3.86857445e-06
-3.78405749e-06
-3.70359318e-06
-3.62690992e-06
-3.55376032e-06
-3.48391796e-06
-3.41717518e-06
-3.35334184e-06
-3.29224278e-06
-3.23371684e-06
-3.17761502e-06
-3.12380008e-06
-3.07214476e-06
-3.02253093e-06
-2.97484935e-06
-2.92899827e-06
-2.8848828e-06
-2.84241493e-06
-2.80151233e-06
-2.76209792e-06
-2.72409998e-06
-2.68745118e-06
-2.65208827e-06
-2.61795222e-06
-2.58498745e-06
-2.55314154e-06
-2.52236547e-06
-2.49261296e-06
-2.46384019e-06
-2.43600614e-06
-2.40907192e-06
-2.38300064e-06
-2.35775771e-06
-2.33331018e-06
-2.30962694e-06
-2.28667832e-06
-2.26443646e-06
-2.24287476e-06
-2.22196783e-06
-2.2016918e-06
-2.18202384e-06
-2.16294209e-06
-2.14442598e-06
-2.12645582e-06
-2.10901264e-06
-2.09207868e-06
-2.0756368e-06
-2.05967053e-06
-2.04416438e-06
-2.02910343e-06
-2.01447324e-06
-2.0002603e-06
-1.98645151e-06
-1.97303421e-06
-1.95999651e-06
-1.9473269e-06
-1.93501419e-06
-1.92304792e-06
-1.91141785e-06
-1.90011425e-06
-1.8891276e-06
-1.87844899e-06
-1.86806974e-06
-1.85798137e-06
-1.84817595e-06
-1.83864572e-06
-1.82938304e-06
-1.82038082e-06
-1.81163215e-06
-1.80312928e-06
)
;
    }
    outerWall
    {
        type            calculated;
        value           uniform 9.37518406e-09;
    }
    innerWall
    {
        type            calculated;
        value           uniform 0;
    }
    frontAndBack
    {
        type            empty;
        value           nonuniform List<scalar> 0();
    }
}


// ************************************************************************* //
