/*--------------------------------*- C++ -*----------------------------------*\
| =========                 |                                                 |
| \\      /  F ield         | OpenFOAM: The Open Source CFD Toolbox           |
|  \\    /   O peration     | Version:  2206                                  |
|   \\  /    A nd           | Website:  www.openfoam.com                      |
|    \\/     M anipulation  |                                                 |
\*---------------------------------------------------------------------------*/
FoamFile
{
    version     2.0;
    format      ascii;
    arch        "LSB;label=32;scalar=64";
    class       volVectorField;
    location    "5500";
    object      U;
}
// * * * * * * * * * * * * * * * * * * * * * * * * * * * * * * * * * * * * * //

dimensions      [0 1 -1 0 0 0 0];

internalField   nonuniform List<vector> 
100
(
(0.0121938292 0.596129729 0)
(-0.00387587825 0.549990529 0)
(0.000930343252 0.509882564 0)
(-0.000130224547 0.475367883 0)
(0.000102933578 0.445254757 0)
(8.70161354e-05 0.418767978 0)
(0.000105578659 0.395288406 0)
(0.000116607257 0.374334498 0)
(0.00012590125 0.355522567 0)
(0.000133374129 0.338542773 7.3481078e-20)
(0.000139429118 0.323142251 -7.75656855e-20)
(0.00014432371 0.309112581 0)
(0.000148268573 0.296280457 0)
(0.000151430665 0.284500604 8.70915585e-20)
(0.000153943766 0.273650328 0)
(0.000155916106 0.263625293 0)
(0.000157435872 0.254336211 0)
(0.000158575428 0.245706228 0)
(0.000159394502 0.237668834 0)
(0.000159942702 0.230166176 0)
(0.000160261414 0.223147698 0)
(0.000160385358 0.216569024 0)
(0.000160343759 0.210391044 0)
(0.000160161349 0.204579155 0)
(0.000159859105 0.199102628 0)
(0.000159454903 0.193934085 0)
(0.000158963997 0.189049049 0)
(0.000158399474 0.184425576 0)
(0.00015777256 0.180043929 0)
(0.000157092931 0.175886315 0)
(0.000156368919 0.171936643 0)
(0.000155607746 0.168180334 0)
(0.000154815648 0.164604139 0)
(0.000153998048 0.161195997 0)
(0.00015315964 0.157944904 0)
(0.000152304519 0.154840796 0)
(0.000151436237 0.151874453 0)
(0.000150557898 0.149037416 0)
(0.000149672193 0.146321902 0)
(0.00014878148 0.143720746 0)
(0.000147887803 0.141227335 0)
(0.000146992956 0.13883556 0)
(0.000146098486 0.136539765 0)
(0.000145205754 0.134334709 0)
(0.000144315933 0.132215527 0)
(0.00014343005 0.130177699 0)
(0.000142548984 0.128217014 0)
(0.000141673508 0.126329553 0)
(0.000140804278 0.124511657 0)
(0.000139941865 0.122759908 0)
(0.000139086751 0.121071111 0)
(0.000138239352 0.119442273 0)
(0.000137400014 0.117870591 0)
(0.000136569033 0.116353433 0)
(0.000135746648 0.114888329 0)
(0.000134933061 0.113472958 0)
(0.000134128427 0.112105133 0)
(0.000133332876 0.110782797 0)
(0.0001325465 0.109504009 0)
(0.000131769369 0.10826694 0)
(0.000131001524 0.107069861 0)
(0.00013024299 0.10591114 0)
(0.000129493772 0.104789232 0)
(0.000128753859 0.103702675 0)
(0.00012802322 0.102650085 0)
(0.000127301822 0.101630148 0)
(0.000126589619 0.100641621 7.39356935e-20)
(0.000125886548 0.0996833212 0)
(0.00012519254 0.0987541263 0)
(0.000124507521 0.0978529695 0)
(0.00012383142 0.096978836 0)
(0.000123164141 0.09613076 7.07267022e-20)
(0.000122505597 0.0953078221 0)
(0.000121855689 0.0945091459 0)
(0.000121214334 0.0937338959 0)
(0.000120581417 0.0929812752 -6.83035157e-20)
(0.000119956845 0.092250523 0)
(0.000119340504 0.091540913 0)
(0.000118732302 0.0908517509 0)
(0.000118132119 0.090182373 0)
(0.000117539856 0.0895321447 0)
(0.000116955398 0.0889004584 0)
(0.000116378644 0.0882867326 0)
(0.00011580948 0.08769041 -6.38300459e-20)
(0.000115247797 0.0871109568 0)
(0.000114693487 0.0865478609 0)
(0.000114146465 0.0860006313 0)
(0.000113606634 0.0854687968 6.17702047e-20)
(0.000113073793 0.0849519048 0)
(0.000112547424 0.0844495208 0)
(0.000112027485 0.0839612271 0)
(0.000111518115 0.0834866224 5.98205752e-20)
(0.000111028842 0.0830253206 0)
(0.000110539251 0.0825769502 0)
(0.000109903738 0.0821411537 0)
(0.000108981841 0.0817175861 5.79749331e-20)
(0.00010890987 0.0813059136 0)
(0.000113816302 0.0809058147 0)
(0.000121971293 0.0805169831 0)
(8.87560011e-05 0.0801390794 0)
)
;

boundaryField
{
    left
    {
        type            wedge;
    }
    right
    {
        type            wedge;
    }
    outerWall
    {
        type            navierSlip;
        value           uniform (0 0.0799594691 0);
        slipLength      uniform 1;
        wallVelocity    uniform (0 0 0);
    }
    innerWall
    {
        type            rotatingWallVelocity;
        origin          (0 0 0);
        axis            (0 0 1);
        omega           constant 12.566;
        value           uniform (0 0.628204307 -0);
    }
    frontAndBack
    {
        type            empty;
    }
}


// ************************************************************************* //
