/*--------------------------------*- C++ -*----------------------------------*\
| =========                 |                                                 |
| \\      /  F ield         | OpenFOAM: The Open Source CFD Toolbox           |
|  \\    /   O peration     | Version:  2206                                  |
|   \\  /    A nd           | Website:  www.openfoam.com                      |
|    \\/     M anipulation  |                                                 |
\*---------------------------------------------------------------------------*/
FoamFile
{
    version     2.0;
    format      ascii;
    arch        "LSB;label=32;scalar=64";
    class       volScalarField;
    location    "290";
    object      p;
}
// * * * * * * * * * * * * * * * * * * * * * * * * * * * * * * * * * * * * * //

dimensions      [0 2 -2 0 0 0 0];

internalField   nonuniform List<scalar> 
100000
(
3.16857e-10
1.83682e-08
2.64449e-08
3.5614e-08
4.77972e-08
6.11276e-08
6.96587e-08
8.62719e-08
1.00909e-07
1.21883e-07
1.41409e-07
1.59877e-07
1.83874e-07
2.07981e-07
2.37152e-07
2.66232e-07
2.92999e-07
3.26827e-07
3.59004e-07
3.98417e-07
4.35286e-07
4.72674e-07
5.13887e-07
5.57291e-07
6.03481e-07
6.52906e-07
7.03558e-07
7.51019e-07
8.06099e-07
8.59423e-07
9.19752e-07
9.7818e-07
1.03603e-06
1.09934e-06
1.16268e-06
1.23156e-06
1.29975e-06
1.36636e-06
1.43929e-06
1.51153e-06
1.58991e-06
1.66709e-06
1.74313e-06
1.82512e-06
1.90673e-06
1.99422e-06
2.08074e-06
2.16593e-06
2.25724e-06
2.34801e-06
2.44482e-06
2.54049e-06
2.635e-06
2.73547e-06
2.83557e-06
2.94153e-06
3.04655e-06
3.15019e-06
3.26004e-06
3.36922e-06
3.48462e-06
3.59866e-06
3.71181e-06
3.8306e-06
3.9494e-06
4.07361e-06
4.19741e-06
4.31919e-06
4.44798e-06
4.57513e-06
4.70967e-06
4.84144e-06
4.974e-06
5.1102e-06
5.24882e-06
5.39003e-06
5.53469e-06
5.68036e-06
5.82307e-06
5.97327e-06
6.1218e-06
6.27732e-06
6.43091e-06
6.58398e-06
6.74252e-06
6.90106e-06
7.06521e-06
7.22857e-06
7.39047e-06
7.55862e-06
7.72613e-06
7.89977e-06
8.07219e-06
8.2435e-06
8.42078e-06
8.59764e-06
8.78047e-06
8.96219e-06
9.14273e-06
9.32928e-06
9.51541e-06
9.70746e-06
9.89849e-06
1.00882e-05
1.02841e-05
1.04794e-05
1.06808e-05
1.08809e-05
1.10802e-05
1.1285e-05
1.14899e-05
1.17002e-05
1.19101e-05
1.21179e-05
1.23328e-05
1.2546e-05
1.27667e-05
1.29845e-05
1.32032e-05
1.34254e-05
1.36502e-05
1.38775e-05
1.41082e-05
1.434e-05
1.45688e-05
1.48051e-05
1.50397e-05
1.52813e-05
1.5521e-05
1.57602e-05
1.60048e-05
1.62495e-05
1.64997e-05
1.67492e-05
1.69972e-05
1.72514e-05
1.75051e-05
1.77648e-05
1.80233e-05
1.82808e-05
1.85441e-05
1.88071e-05
1.9076e-05
1.93439e-05
1.96105e-05
1.98832e-05
2.01554e-05
2.04337e-05
2.07107e-05
2.09867e-05
2.12686e-05
2.15501e-05
2.18375e-05
2.21239e-05
2.2409e-05
2.27003e-05
2.29909e-05
2.32878e-05
2.35832e-05
2.38778e-05
2.41781e-05
2.44783e-05
2.4784e-05
2.50893e-05
2.53925e-05
2.57028e-05
2.60114e-05
2.63274e-05
2.66406e-05
2.69547e-05
2.72723e-05
2.75924e-05
2.79151e-05
2.82413e-05
2.85684e-05
2.88926e-05
2.92243e-05
2.95543e-05
2.98913e-05
3.02264e-05
3.05609e-05
3.0901e-05
3.1241e-05
3.15866e-05
3.19315e-05
3.22749e-05
3.26245e-05
3.29735e-05
3.33287e-05
3.36826e-05
3.40354e-05
3.43942e-05
3.47525e-05
3.51169e-05
3.54801e-05
3.58422e-05
3.62102e-05
3.65778e-05
3.69514e-05
3.73239e-05
3.76952e-05
3.80726e-05
3.84494e-05
3.88324e-05
3.92139e-05
3.95947e-05
3.99811e-05
4.03675e-05
4.07593e-05
4.11507e-05
4.154e-05
4.19364e-05
4.23312e-05
4.27333e-05
4.31327e-05
4.35329e-05
4.39367e-05
4.43429e-05
4.47517e-05
4.5164e-05
4.55773e-05
4.59876e-05
4.64054e-05
4.68216e-05
4.72448e-05
4.76659e-05
4.80867e-05
4.85128e-05
4.8939e-05
4.93708e-05
4.98018e-05
5.02313e-05
5.06671e-05
5.11022e-05
5.15435e-05
5.19836e-05
5.24225e-05
5.28674e-05
5.3312e-05
5.37624e-05
5.42118e-05
5.466e-05
5.51142e-05
5.55679e-05
5.60277e-05
5.64863e-05
5.69438e-05
5.74072e-05
5.78703e-05
5.83392e-05
5.88072e-05
5.92738e-05
5.97466e-05
6.02188e-05
6.06972e-05
6.11742e-05
6.16503e-05
6.21321e-05
6.26139e-05
6.31011e-05
6.35879e-05
6.40727e-05
6.45645e-05
6.50546e-05
6.55522e-05
6.60469e-05
6.65426e-05
6.70417e-05
6.75434e-05
6.80476e-05
6.85553e-05
6.9064e-05
6.95697e-05
7.0083e-05
7.05945e-05
7.11131e-05
7.16297e-05
7.21458e-05
7.26674e-05
7.31889e-05
7.37161e-05
7.42425e-05
7.47675e-05
7.52987e-05
7.58292e-05
7.63659e-05
7.69014e-05
7.74357e-05
7.79761e-05
7.8516e-05
7.90618e-05
7.96066e-05
8.01502e-05
8.06998e-05
8.1249e-05
8.18041e-05
8.23582e-05
8.2911e-05
8.34699e-05
8.40283e-05
8.45928e-05
8.51559e-05
8.57182e-05
8.62862e-05
8.68541e-05
8.74275e-05
8.80004e-05
8.85713e-05
8.91493e-05
8.97256e-05
9.03093e-05
9.08902e-05
9.14719e-05
9.20573e-05
9.26451e-05
9.32354e-05
9.38293e-05
9.44241e-05
9.5016e-05
9.56153e-05
9.6213e-05
9.68178e-05
9.74205e-05
9.80228e-05
9.86305e-05
9.92382e-05
9.98515e-05
0.000100464
0.000101075
0.000101693
0.000102309
0.000102932
0.000103554
0.000104174
0.000104801
0.000105427
0.000106059
0.00010669
0.000107319
0.000107955
0.00010859
0.000109232
0.000109872
0.000110511
0.000111156
0.000111801
0.000112451
0.000113101
0.000113749
0.000114403
0.000115057
0.000115717
0.000116375
0.000117033
0.000117696
0.00011836
0.000119029
0.000119697
0.000120363
0.000121037
0.000121708
0.000122387
0.000123064
0.000123741
0.000124422
0.000125105
0.000125791
0.00012648
0.00012717
0.000127857
0.000128552
0.000129245
0.000129945
0.000130644
0.000131341
0.000132044
0.000132747
0.000133456
0.000134164
0.000134871
0.000135583
0.000136296
0.000137014
0.000137731
0.000138447
0.000139169
0.00013989
0.000140618
0.000141344
0.000142069
0.0001428
0.000143531
0.000144268
0.000145003
0.000145738
0.000146478
0.000147218
0.000147964
0.000148709
0.000149453
0.000150202
0.000150952
0.000151707
0.000152461
0.000153213
0.000153973
0.000154731
0.000155496
0.000156259
0.000157022
0.000157789
0.000158558
0.00015933
0.000160105
0.000160882
0.000161655
0.000162436
0.000163215
0.000164002
0.000164786
0.00016557
0.000166359
0.000167148
0.000167943
0.000168737
0.00016953
0.000170329
0.000171127
0.000171932
0.000172735
0.000173537
0.000174345
0.000175153
0.000175966
0.000176779
0.00017759
0.000178407
0.000179224
0.000180047
0.000180869
0.000181689
0.000182516
0.000183342
0.000184174
0.000185005
0.000185835
0.000186671
0.000187506
0.000188348
0.000189188
0.000190027
0.000190872
0.000191717
0.000192567
0.000193417
0.000194265
0.00019512
0.000195973
0.000196834
0.000197692
0.00019855
0.000199413
0.000200277
0.000201145
0.000202016
0.000202887
0.000203756
0.000204633
0.000205507
0.000206389
0.000207269
0.000208148
0.000209033
0.000209917
0.000210808
0.000211697
0.000212585
0.00021348
0.000214373
0.000215273
0.000216172
0.000217069
0.000217973
0.000218876
0.000219785
0.000220692
0.000221599
0.000222512
0.000223424
0.000224342
0.00022526
0.000226176
0.000227098
0.000228019
0.000228947
0.000229873
0.000230798
0.000231729
0.000232661
0.000233597
0.000234533
0.000235467
0.000236408
0.000237348
0.000238294
0.000239238
0.000240183
0.000241132
0.000242083
0.000243036
0.000243993
0.000244951
0.000245906
0.000246869
0.000247829
0.000248797
0.000249763
0.000250729
0.000251699
0.00025267
0.000253647
0.000254622
0.000255597
0.000256577
0.000257557
0.000258543
0.000259528
0.000260511
0.000261501
0.00026249
0.000263485
0.000264479
0.000265472
0.000266471
0.000267469
0.000268474
0.000269477
0.000270479
0.000271487
0.000272495
0.000273509
0.000274521
0.000275533
0.00027655
0.000277567
0.00027859
0.000279612
0.000280633
0.000281659
0.000282685
0.000283717
0.000284749
0.000285778
0.000286815
0.00028785
0.000288892
0.000289931
0.000290972
0.000292015
0.000293062
0.000294111
0.000295163
0.000296216
0.000297267
0.000298325
0.000299381
0.000300444
0.000301506
0.000302566
0.000303633
0.000304699
0.000305771
0.000306842
0.000307911
0.000308987
0.000310063
0.000311144
0.000312224
0.000313303
0.000314388
0.000315473
0.000316563
0.000317653
0.000318741
0.000319835
0.000320929
0.000322029
0.000323128
0.000324225
0.000325329
0.000326432
0.000327541
0.000328649
0.000329756
0.000330869
0.000331981
0.000333099
0.000334217
0.000335332
0.000336455
0.000337576
0.000338704
0.00033983
0.000340957
0.000342087
0.000343219
0.000344354
0.000345493
0.000346632
0.000347769
0.000348913
0.000350055
0.000351205
0.000352352
0.000353499
0.000354651
0.000355804
0.000356962
0.000358119
0.000359275
0.000360437
0.000361598
0.000362766
0.000363932
0.000365097
0.000366268
0.000367439
0.000368616
0.000369791
0.000370966
0.000372146
0.000373326
0.000374512
0.000375697
0.000376881
0.000378071
0.00037926
0.000380455
0.000381649
0.000382842
0.000384041
0.00038524
0.000386444
0.000387648
0.00038885
0.000390058
0.000391266
0.000392479
0.000393692
0.000394904
0.000396122
0.000397338
0.000398562
0.000399783
0.000401005
0.00040223
0.000403458
0.000404688
0.000405922
0.000407157
0.000408389
0.000409629
0.000410867
0.000412111
0.000413354
0.000414597
0.000415844
0.000417092
0.000418346
0.000419598
0.00042085
0.000422107
0.000423364
0.000424627
0.000425888
0.000427149
0.000428416
0.000429682
0.000430954
0.000432225
0.000433495
0.000434771
0.000436046
0.000437327
0.000438608
0.000439887
0.000441172
0.000442457
0.000443747
0.000445037
0.000446325
0.00044762
0.000448914
0.000450213
0.000451513
0.00045281
0.000454114
0.000455416
0.000456726
0.000458034
0.000459342
0.000460653
0.000461967
0.000463284
0.000464604
0.000465925
0.000467243
0.000468569
0.000469893
0.000471224
0.000472553
0.000473881
0.000475215
0.000476549
0.000477889
0.000479228
0.000480565
0.000481909
0.000483251
0.000484601
0.000485948
0.000487295
0.000488648
0.00049
0.000491358
0.000492716
0.000494072
0.000495434
0.000496795
0.000498163
0.000499529
0.000500895
0.000502266
0.000503637
0.000505013
0.000506389
0.000507764
0.000509144
0.000510524
0.00051191
0.000513295
0.000514679
0.000516069
0.000517458
0.000518853
0.000520248
0.000521641
0.00052304
0.000524438
0.000525844
0.000527246
0.00052865
0.000530057
0.000531466
0.000532878
0.000534294
0.00053571
0.000537124
0.000538545
0.000539964
0.00054139
0.000542815
0.000544239
0.000545668
0.000547098
0.000548533
0.000549967
0.0005514
0.000552839
0.000554277
0.000555721
0.000557165
0.000558607
0.000560055
0.000561503
0.000562956
0.000564409
0.000565861
0.000567318
0.000568775
0.000570238
0.0005717
0.00057316
0.000574627
0.000576093
0.000577566
0.000579037
0.000580507
0.000581982
0.000583458
0.000584939
0.00058642
0.000587899
0.000589385
0.000590869
0.00059236
0.000593849
0.000595339
0.000596832
0.000598327
0.000599826
0.000601327
0.00060283
0.00060433
0.000605837
0.000607342
0.000608855
0.000610365
0.000611876
0.000613391
0.000614907
0.000616428
0.000617948
0.000619467
0.000620992
0.000622517
0.000624047
0.000625577
0.000627105
0.000628639
0.000630173
0.000631713
0.000633252
0.000634789
0.000636333
0.000637876
0.000639425
0.000640973
0.00064252
0.000644073
0.000645625
0.000647184
0.000648741
0.000650297
0.000651859
0.000653421
0.000654989
0.000656555
0.000658121
0.000659692
0.000661263
0.000662839
0.000664416
0.00066599
0.000667571
0.000669151
0.000670737
0.000672322
0.000673907
0.000675495
0.000677086
0.00067868
0.000680277
0.000681875
0.00068347
0.000685073
0.000686674
0.000688282
0.000689888
0.000691493
0.000693104
0.000694715
0.000696332
0.000697947
0.000699562
0.000701182
0.000702802
0.000704428
0.000706053
0.000707677
0.000709307
0.000710936
0.000712571
0.000714205
0.000715838
0.000717477
0.000719116
0.00072076
0.000722404
0.000724046
0.000725694
0.000727342
0.000728996
0.000730648
0.0007323
0.000733957
0.000735615
0.000737278
0.00073894
0.0007406
0.000742268
0.000743933
0.000745606
0.000747277
0.000748948
0.000750622
0.0007523
0.000753979
0.000755663
0.000757347
0.000759028
0.000760717
0.000762404
0.000764098
0.00076579
0.000767482
0.000769179
0.000770876
0.000772579
0.000774281
0.000775981
0.000777688
0.000779394
0.000781106
0.000782817
0.000784527
0.000786243
0.000787958
0.00078968
0.0007914
0.000793119
0.000794845
0.000796569
0.0007983
0.000800029
0.000801758
0.000803492
0.000805226
0.000806966
0.000808705
0.000810443
0.000812186
0.00081393
0.000815679
0.000817427
0.000819174
0.000820927
0.000822679
0.000824438
0.000826195
0.000827951
0.000829714
0.000831475
0.000833243
0.000835009
0.000836776
0.000838546
0.000840318
0.000842094
0.000843872
0.000845652
0.000847429
0.000849213
0.000850995
0.000852785
0.000854572
0.000856359
0.000858152
0.000859944
0.000861743
0.00086354
0.000865336
0.000867138
0.000868939
0.000870747
0.000872553
0.000874359
0.00087617
0.000877981
0.000879798
0.000881613
0.000883428
0.000885249
0.000887069
0.000888895
0.00089072
0.000892544
0.000894374
0.000896203
0.000898038
0.000899872
0.000901706
0.000903545
0.000905383
0.000907228
0.000909072
0.000910914
0.000912762
0.00091461
0.000916464
0.000918316
0.000920169
0.000922025
0.000923884
0.000925745
0.00092761
0.000929476
0.000931339
0.000933209
0.000935078
0.000936953
0.000938827
0.0009407
0.000942579
0.000944458
0.000946342
0.000948225
0.000950107
0.000951996
0.000953883
0.000955777
0.00095767
0.000959561
0.000961459
0.000963356
0.000965259
0.000967161
0.000969061
0.000970968
0.000972874
0.000974787
0.000976698
0.000978608
0.000980524
0.000982439
0.000984361
0.000986281
0.0009882
0.000990126
0.00099205
0.000993981
0.000995911
0.000997839
0.000999774
0.00100171
0.00100365
0.00100559
0.00100752
0.00100947
0.00101141
0.00101336
0.00101531
0.00101726
0.00101921
0.00102116
0.00102312
0.00102508
0.00102704
0.001029
0.00103096
0.00103293
0.0010349
0.00103687
0.00103884
0.00104081
0.00104279
0.00104477
0.00104674
0.00104872
0.00105071
0.00105269
0.00105468
0.00105667
0.00105865
0.00106065
0.00106264
0.00106464
0.00106663
0.00106863
0.00107063
0.00107263
0.00107464
0.00107665
0.00107865
0.00108066
0.00108268
0.00108469
0.00108671
0.00108872
0.00109074
0.00109276
0.00109479
0.00109682
0.00109884
0.00110087
0.0011029
0.00110493
0.00110697
0.001109
0.00111104
0.00111308
0.00111512
0.00111717
0.00111922
0.00112126
0.00112331
0.00112536
0.00112742
0.00112948
0.00113153
0.00113359
0.00113565
0.00113772
0.00113978
0.00114185
0.00114392
0.00114598
0.00114806
0.00115013
0.00115221
0.00115429
0.00115637
0.00115845
0.00116053
0.00116262
0.0011647
0.00116679
0.00116889
0.00117098
0.00117307
0.00117517
0.00117726
0.00117937
0.00118147
0.00118357
0.00118568
0.00118778
0.0011899
0.00119201
0.00119412
0.00119623
0.00119835
0.00120047
0.00120259
0.00120471
0.00120684
0.00120896
0.00121109
0.00121322
0.00121535
0.00121748
0.00121962
0.00122176
0.0012239
0.00122604
0.00122818
0.00123033
0.00123247
0.00123463
0.00123678
0.00123893
0.00124108
0.00124324
0.0012454
0.00124756
0.00124972
0.00125189
0.00125405
0.00125622
0.00125839
0.00126056
0.00126273
0.00126491
0.00126709
0.00126927
0.00127144
0.00127363
0.00127581
0.001278
0.00128019
0.00128238
0.00128457
0.00128676
0.00128896
0.00129116
0.00129335
0.00129555
0.00129776
0.00129996
0.00130217
0.00130438
0.00130659
0.0013088
0.00131102
0.00131323
0.00131545
0.00131767
0.00131989
0.00132211
0.00132434
0.00132657
0.0013288
0.00133103
0.00133326
0.0013355
0.00133774
0.00133997
0.00134222
0.00134446
0.0013467
0.00134895
0.0013512
0.00135345
0.0013557
0.00135796
0.00136021
0.00136247
0.00136473
0.00136699
0.00136925
0.00137152
0.00137378
0.00137605
0.00137832
0.0013806
0.00138287
0.00138514
0.00138742
0.0013897
0.00139199
0.00139427
0.00139655
0.00139884
0.00140113
0.00140342
0.00140571
0.00140801
0.0014103
0.0014126
0.0014149
0.00141721
0.00141951
0.00142181
0.00142412
0.00142643
0.00142874
0.00143106
0.00143337
0.00143569
0.00143801
0.00144033
0.00144266
0.00144498
0.00144731
0.00144963
0.00145197
0.0014543
0.00145663
0.00145897
0.00146131
0.00146365
0.00146599
0.00146833
0.00147068
0.00147302
0.00147538
0.00147773
0.00148008
0.00148243
0.00148479
0.00148715
0.00148951
0.00149187
0.00149424
0.0014966
0.00149897
0.00150134
0.00150371
0.00150608
0.00150846
0.00151084
0.00151322
0.00151559
0.00151798
0.00152036
0.00152275
0.00152514
0.00152753
0.00152992
0.00153231
0.00153471
0.00153711
0.00153951
0.00154191
0.00154431
0.00154672
0.00154913
0.00155154
0.00155394
0.00155636
0.00155877
0.00156119
0.00156361
0.00156603
0.00156845
0.00157088
0.0015733
0.00157573
0.00157816
0.00158059
0.00158302
0.00158546
0.0015879
0.00159034
0.00159278
0.00159522
0.00159767
0.00160011
0.00160256
0.00160501
0.00160746
0.00160992
0.00161238
0.00161483
0.00161729
0.00161975
0.00162222
0.00162468
0.00162715
0.00162962
0.00163209
0.00163456
0.00163704
0.00163951
0.00164199
0.00164447
0.00164695
0.00164944
0.00165192
0.00165441
0.00165689
0.00165939
0.00166188
0.00166437
0.00166687
0.00166937
0.00167187
0.00167437
0.00167688
0.00167938
0.00168189
0.0016844
0.00168692
0.00168943
0.00169195
0.00169446
0.00169698
0.00169951
0.00170203
0.00170455
0.00170708
0.00170961
0.00171214
0.00171468
0.00171721
0.00171975
0.00172228
0.00172483
0.00172737
0.00172991
0.00173246
0.001735
0.00173755
0.00174011
0.00174266
0.00174521
0.00174777
0.00175033
0.00175289
0.00175545
0.00175801
0.00176058
0.00176315
0.00176572
0.00176829
0.00177086
0.00177344
0.00177602
0.0017786
0.00178117
0.00178376
0.00178634
0.00178893
0.00179152
0.00179411
0.0017967
0.0017993
0.00180189
0.0018045
0.0018071
0.0018097
0.0018123
0.00181491
0.00181752
0.00182013
0.00182273
0.00182535
0.00182796
0.00183058
0.0018332
0.00183582
0.00183844
0.00184107
0.0018437
0.00184632
0.00184895
0.00185158
0.00185422
0.00185685
0.00185949
0.00186213
0.00186477
0.00186741
0.00187006
0.00187271
0.00187535
0.001878
0.00188065
0.00188331
0.00188597
0.00188862
0.00189128
0.00189394
0.00189661
0.00189928
0.00190194
0.00190461
0.00190728
0.00190995
0.00191263
0.0019153
0.00191798
0.00192066
0.00192334
0.00192603
0.00192872
0.0019314
0.00193409
0.00193679
0.00193948
0.00194218
0.00194487
0.00194757
0.00195027
0.00195298
0.00195568
0.00195839
0.0019611
0.00196381
0.00196652
0.00196924
0.00197195
0.00197467
0.00197739
0.00198011
0.00198284
0.00198556
0.00198829
0.00199102
0.00199375
0.00199648
0.00199921
0.00200195
0.00200469
0.00200743
0.00201017
0.00201292
0.00201566
0.00201841
0.00202116
0.00202391
0.00202666
0.00202942
0.00203217
0.00203494
0.0020377
0.00204046
0.00204322
0.00204599
0.00204876
0.00205153
0.0020543
0.00205707
0.00205985
0.00206263
0.00206541
0.00206819
0.00207097
0.00207376
0.00207655
0.00207934
0.00208213
0.00208492
0.00208772
0.00209051
0.00209331
0.00209611
0.00209891
0.00210172
0.00210452
0.00210733
0.00211014
0.00211295
0.00211577
0.00211858
0.0021214
0.00212422
0.00212704
0.00212986
0.00213269
0.00213552
0.00213834
0.00214117
0.002144
0.00214684
0.00214967
0.00215251
0.00215535
0.00215819
0.00216103
0.00216388
0.00216673
0.00216957
0.00217243
0.00217528
0.00217813
0.00218099
0.00218384
0.0021867
0.00218957
0.00219243
0.0021953
0.00219817
0.00220103
0.00220391
0.00220678
0.00220966
0.00221254
0.00221541
0.00221829
0.00222118
0.00222406
0.00222695
0.00222984
0.00223273
0.00223562
0.00223851
0.00224141
0.00224431
0.00224721
0.00225011
0.00225301
0.00225592
0.00225882
0.00226173
0.00226464
0.00226756
0.00227047
0.00227338
0.0022763
0.00227922
0.00228215
0.00228507
0.00228799
0.00229092
0.00229385
0.00229678
0.00229972
0.00230265
0.00230559
0.00230852
0.00231147
0.00231441
0.00231735
0.0023203
0.00232324
0.0023262
0.00232915
0.0023321
0.00233505
0.00233801
0.00234097
0.00234393
0.0023469
0.00234986
0.00235283
0.0023558
0.00235877
0.00236174
0.00236472
0.00236769
0.00237067
0.00237365
0.00237664
0.00237962
0.0023826
0.00238559
0.00238858
0.00239157
0.00239456
0.00239756
0.00240056
0.00240356
0.00240656
0.00240956
0.00241256
0.00241557
0.00241858
0.00242159
0.0024246
0.00242761
0.00243063
0.00243365
0.00243666
0.00243968
0.00244271
0.00244573
0.00244876
0.00245179
0.00245481
0.00245785
0.00246088
0.00246392
0.00246696
0.00246999
0.00247304
0.00247608
0.00247912
0.00248217
0.00248523
0.00248827
0.00249133
0.00249438
0.00249744
0.0025005
0.00250356
0.00250662
0.00250969
0.00251275
0.00251582
0.00251889
0.00252196
0.00252504
0.00252811
0.00253119
0.00253427
0.00253735
0.00254043
0.00254352
0.00254661
0.00254969
0.00255278
0.00255587
0.00255897
0.00256207
0.00256516
0.00256826
0.00257136
0.00257447
0.00257758
0.00258068
0.00258379
0.0025869
0.00259001
0.00259313
0.00259624
0.00259936
0.00260248
0.00260561
0.00260873
0.00261185
0.00261498
0.00261811
0.00262124
0.00262438
0.00262751
0.00263064
0.00263378
0.00263693
0.00264007
0.00264322
0.00264636
0.00264951
0.00265266
0.00265581
0.00265897
0.00266212
0.00266528
0.00266844
0.0026716
0.00267477
0.00267793
0.0026811
0.00268427
0.00268744
0.00269061
0.00269379
0.00269696
0.00270014
0.00270332
0.00270651
0.00270969
0.00271287
0.00271606
0.00271925
0.00272244
0.00272563
0.00272883
0.00273203
0.00273523
0.00273843
0.00274163
0.00274483
0.00274804
0.00275125
0.00275446
0.00275767
0.00276088
0.0027641
0.00276732
0.00277054
0.00277376
0.00277698
0.0027802
0.00278343
0.00278666
0.00278989
0.00279312
0.00279636
0.0027996
0.00280284
0.00280608
0.00280932
0.00281256
0.00281581
0.00281906
0.00282231
0.00282556
0.00282881
0.00283207
0.00283533
0.00283858
0.00284184
0.00284511
0.00284837
0.00285164
0.00285491
0.00285817
0.00286145
0.00286472
0.002868
0.00287128
0.00287455
0.00287784
0.00288112
0.00288441
0.00288769
0.00289098
0.00289427
0.00289756
0.00290086
0.00290415
0.00290745
0.00291075
0.00291405
0.00291736
0.00292066
0.00292397
0.00292728
0.00293059
0.0029339
0.00293722
0.00294053
0.00294385
0.00294717
0.00295049
0.00295382
0.00295715
0.00296047
0.0029638
0.00296713
0.00297047
0.00297381
0.00297714
0.00298048
0.00298382
0.00298717
0.00299051
0.00299386
0.00299721
0.00300056
0.00300391
0.00300727
0.00301062
0.00301398
0.00301734
0.0030207
0.00302407
0.00302743
0.0030308
0.00303417
0.00303754
0.00304091
0.00304428
0.00304766
0.00305104
0.00305442
0.00305781
0.00306119
0.00306457
0.00306796
0.00307135
0.00307474
0.00307813
0.00308153
0.00308493
0.00308833
0.00309173
0.00309513
0.00309853
0.00310194
0.00310535
0.00310876
0.00311218
0.00311559
0.00311901
0.00312242
0.00312585
0.00312927
0.00313269
0.00313612
0.00313954
0.00314297
0.00314641
0.00314984
0.00315327
0.00315671
0.00316015
0.00316359
0.00316703
0.00317047
0.00317392
0.00317737
0.00318082
0.00318427
0.00318772
0.00319118
0.00319464
0.0031981
0.00320156
0.00320502
0.00320848
0.00321195
0.00321542
0.00321889
0.00322236
0.00322583
0.00322931
0.00323279
0.00323627
0.00323975
0.00324323
0.00324672
0.00325021
0.00325369
0.00325718
0.00326067
0.00326417
0.00326767
0.00327116
0.00327466
0.00327817
0.00328167
0.00328518
0.00328869
0.00329219
0.00329571
0.00329922
0.00330274
0.00330626
0.00330977
0.00331329
0.00331682
0.00332034
0.00332387
0.0033274
0.00333093
0.00333446
0.003338
0.00334153
0.00334507
0.00334861
0.00335215
0.00335569
0.00335924
0.00336278
0.00336633
0.00336988
0.00337344
0.00337699
0.00338055
0.00338411
0.00338767
0.00339123
0.00339479
0.00339836
0.00340193
0.00340549
0.00340907
0.00341264
0.00341621
0.00341979
0.00342337
0.00342695
0.00343053
0.00343412
0.0034377
0.00344129
0.00344488
0.00344847
0.00345207
0.00345566
0.00345926
0.00346286
0.00346647
0.00347007
0.00347367
0.00347728
0.00348089
0.0034845
0.00348812
0.00349173
0.00349534
0.00349896
0.00350259
0.00350621
0.00350983
0.00351346
0.00351708
0.00352071
0.00352435
0.00352798
0.00353161
0.00353525
0.00353889
0.00354253
0.00354617
0.00354982
0.00355346
0.00355711
0.00356076
0.00356441
0.00356807
0.00357172
0.00357538
0.00357904
0.0035827
0.00358636
0.00359002
0.00359369
0.00359736
0.00360103
0.0036047
0.00360838
0.00361206
0.00361573
0.00361941
0.00362309
0.00362677
0.00363046
0.00363415
0.00363784
0.00364153
0.00364522
0.00364892
0.00365262
0.00365632
0.00366002
0.00366372
0.00366742
0.00367113
0.00367484
0.00367855
0.00368226
0.00368597
0.00368969
0.00369341
0.00369713
0.00370085
0.00370457
0.0037083
0.00371203
0.00371575
0.00371948
0.00372321
0.00372695
0.00373069
0.00373442
0.00373816
0.0037419
0.00374565
0.0037494
0.00375314
0.00375689
0.00376064
0.0037644
0.00376815
0.0037719
0.00377566
0.00377942
0.00378319
0.00378695
0.00379071
0.00379448
0.00379825
0.00380202
0.0038058
0.00380958
0.00381335
0.00381713
0.00382091
0.0038247
0.00382848
0.00383227
0.00383606
0.00383985
0.00384364
0.00384744
0.00385123
0.00385503
0.00385883
0.00386263
0.00386644
0.00387024
0.00387405
0.00387786
0.00388167
0.00388548
0.00388929
0.00389311
0.00389693
0.00390075
0.00390458
0.0039084
0.00391222
0.00391605
0.00391988
0.00392371
0.00392755
0.00393138
0.00393522
0.00393906
0.0039429
0.00394674
0.00395059
0.00395443
0.00395828
0.00396213
0.00396598
0.00396984
0.00397369
0.00397755
0.00398141
0.00398527
0.00398913
0.003993
0.00399686
0.00400074
0.00400461
0.00400848
0.00401235
0.00401623
0.00402011
0.00402399
0.00402787
0.00403176
0.00403564
0.00403953
0.00404342
0.00404731
0.00405121
0.0040551
0.004059
0.0040629
0.0040668
0.0040707
0.0040746
0.00407851
0.00408242
0.00408633
0.00409024
0.00409416
0.00409807
0.00410199
0.00410591
0.00410983
0.00411375
0.00411768
0.00412161
0.00412553
0.00412947
0.0041334
0.00413733
0.00414127
0.00414521
0.00414915
0.00415309
0.00415703
0.00416098
0.00416492
0.00416887
0.00417282
0.00417678
0.00418074
0.00418469
0.00418865
0.00419261
0.00419657
0.00420054
0.00420451
0.00420848
0.00421245
0.00421642
0.00422039
0.00422437
0.00422835
0.00423233
0.00423631
0.00424029
0.00424428
0.00424826
0.00425225
0.00425624
0.00426024
0.00426423
0.00426823
0.00427223
0.00427622
0.00428023
0.00428423
0.00428824
0.00429224
0.00429625
0.00430027
0.00430428
0.00430829
0.00431231
0.00431633
0.00432035
0.00432437
0.00432839
0.00433242
0.00433645
0.00434048
0.00434451
0.00434854
0.00435258
0.00435662
0.00436066
0.0043647
0.00436874
0.00437278
0.00437683
0.00438088
0.00438493
0.00438899
0.00439304
0.0043971
0.00440115
0.00440522
0.00440928
0.00441334
0.00441741
0.00442147
0.00442554
0.00442962
0.00443369
0.00443776
0.00444184
0.00444592
0.00445
0.00445408
0.00445817
0.00446225
0.00446634
0.00447043
0.00447452
0.00447862
0.00448271
0.00448681
0.00449091
0.00449501
0.00449911
0.00450322
0.00450733
0.00451143
0.00451554
0.00451965
0.00452377
0.00452789
0.004532
0.00453612
0.00454024
0.00454437
0.00454849
0.00455262
0.00455675
0.00456088
0.00456501
0.00456915
0.00457329
0.00457743
0.00458156
0.00458571
0.00458985
0.004594
0.00459815
0.0046023
0.00460645
0.0046106
0.00461476
0.00461892
0.00462307
0.00462724
0.0046314
0.00463557
0.00463973
0.0046439
0.00464807
0.00465224
0.00465642
0.00466059
0.00466477
0.00466895
0.00467313
0.00467732
0.0046815
0.00468569
0.00468988
0.00469407
0.00469826
0.00470246
0.00470665
0.00471085
0.00471505
0.00471925
0.00472346
0.00472766
0.00473187
0.00473608
0.00474029
0.00474451
0.00474872
0.00475294
0.00475715
0.00476138
0.0047656
0.00476982
0.00477405
0.00477828
0.00478251
0.00478674
0.00479098
0.00479521
0.00479945
0.00480369
0.00480793
0.00481218
0.00481642
0.00482067
0.00482492
0.00482917
0.00483342
0.00483767
0.00484193
0.00484619
0.00485045
0.00485472
0.00485898
0.00486324
0.00486751
0.00487178
0.00487605
0.00488032
0.0048846
0.00488888
0.00489316
0.00489744
0.00490172
0.00490601
0.00491029
0.00491458
0.00491887
0.00492316
0.00492746
0.00493175
0.00493605
0.00494035
0.00494465
0.00494895
0.00495326
0.00495757
0.00496187
0.00496618
0.00497049
0.00497481
0.00497913
0.00498345
0.00498777
0.00499209
0.00499641
0.00500074
0.00500507
0.0050094
0.00501373
0.00501806
0.0050224
0.00502674
0.00503108
0.00503541
0.00503976
0.0050441
0.00504845
0.0050528
0.00505715
0.0050615
0.00506585
0.00507021
0.00507457
0.00507893
0.00508329
0.00508765
0.00509202
0.00509639
0.00510075
0.00510512
0.00510949
0.00511387
0.00511825
0.00512262
0.005127
0.00513138
0.00513577
0.00514016
0.00514454
0.00514893
0.00515332
0.00515772
0.00516211
0.0051665
0.0051709
0.0051753
0.00517971
0.00518411
0.00518852
0.00519292
0.00519733
0.00520175
0.00520616
0.00521058
0.00521499
0.00521941
0.00522383
0.00522826
0.00523269
0.00523711
0.00524154
0.00524597
0.00525041
0.00525484
0.00525927
0.00526371
0.00526815
0.0052726
0.00527704
0.00528148
0.00528593
0.00529038
0.00529484
0.00529929
0.00530374
0.0053082
0.00531266
0.00531712
0.00532158
0.00532604
0.00533051
0.00533498
0.00533945
0.00534392
0.00534839
0.00535287
0.00535734
0.00536183
0.00536631
0.00537079
0.00537527
0.00537976
0.00538425
0.00538874
0.00539323
0.00539772
0.00540222
0.00540672
0.00541122
0.00541572
0.00542022
0.00542473
0.00542924
0.00543375
0.00543826
0.00544277
0.00544729
0.0054518
0.00545633
0.00546085
0.00546537
0.00546989
0.00547442
0.00547895
0.00548348
0.00548801
0.00549254
0.00549708
0.00550162
0.00550616
0.00551069
0.00551524
0.00551978
0.00552433
0.00552888
0.00553343
0.00553798
0.00554253
0.00554709
0.00555165
0.00555621
0.00556077
0.00556533
0.0055699
0.00557447
0.00557903
0.0055836
0.00558818
0.00559275
0.00559733
0.0056019
0.00560649
0.00561107
0.00561565
0.00562024
0.00562482
0.00562941
0.005634
0.0056386
0.0056432
0.00564779
0.00565239
0.00565699
0.00566159
0.0056662
0.00567081
0.00567542
0.00568003
0.00568464
0.00568926
0.00569387
0.00569849
0.00570311
0.00570773
0.00571235
0.00571698
0.0057216
0.00572623
0.00573086
0.0057355
0.00574013
0.00574477
0.00574941
0.00575405
0.00575869
0.00576334
0.00576798
0.00577263
0.00577728
0.00578193
0.00578658
0.00579124
0.00579589
0.00580055
0.00580521
0.00580988
0.00581454
0.00581921
0.00582387
0.00582855
0.00583322
0.00583789
0.00584256
0.00584724
0.00585192
0.00585661
0.00586129
0.00586597
0.00587066
0.00587535
0.00588004
0.00588474
0.00588943
0.00589413
0.00589882
0.00590353
0.00590823
0.00591293
0.00591764
0.00592234
0.00592706
0.00593177
0.00593648
0.00594119
0.00594591
0.00595063
0.00595535
0.00596007
0.0059648
0.00596952
0.00597426
0.00597899
0.00598371
0.00598845
0.00599318
0.00599792
0.00600266
0.0060074
0.00601215
0.00601689
0.00602164
0.00602639
0.00603114
0.00603589
0.00604064
0.0060454
0.00605016
0.00605492
0.00605968
0.00606444
0.00606921
0.00607398
0.00607875
0.00608352
0.00608829
0.00609307
0.00609785
0.00610263
0.0061074
0.00611219
0.00611697
0.00612176
0.00612655
0.00613134
0.00613613
0.00614092
0.00614572
0.00615052
0.00615532
0.00616012
0.00616492
0.00616973
0.00617454
0.00617934
0.00618415
0.00618896
0.00619378
0.0061986