/*--------------------------------*- C++ -*----------------------------------*\
| =========                 |                                                 |
| \\      /  F ield         | OpenFOAM: The Open Source CFD Toolbox           |
|  \\    /   O peration     | Version:  2206                                  |
|   \\  /    A nd           | Website:  www.openfoam.com                      |
|    \\/     M anipulation  |                                                 |
\*---------------------------------------------------------------------------*/
FoamFile
{
    version     2.0;
    format      ascii;
    arch        "LSB;label=32;scalar=64";
    class       volVectorField;
    location    "290";
    object      U;
}
// * * * * * * * * * * * * * * * * * * * * * * * * * * * * * * * * * * * * * //

dimensions      [0 1 -1 0 0 0 0];

internalField   nonuniform List<vector> 
100000
(
(-4.18967e-12 6.41714e-06 4.81414e-13)
(-4.53567e-12 1.19224e-05 6.81653e-14)
(-7.83955e-12 2.17515e-05 1.47833e-13)
(-1.43479e-11 3.23101e-05 1.53091e-13)
(-1.7527e-11 4.1889e-05 9.12472e-14)
(-1.66446e-11 4.43022e-05 7.27301e-14)
(-2.03438e-11 5.40972e-05 1.41595e-13)
(-2.59252e-11 6.47908e-05 1.45566e-13)
(-3.09719e-11 7.54673e-05 1.48255e-13)
(-3.54267e-11 8.51302e-05 8.29405e-14)
(-3.36151e-11 8.74789e-05 7.75203e-14)
(-3.79455e-11 9.72484e-05 1.41702e-13)
(-4.31791e-11 0.000107946 1.47185e-13)
(-4.83437e-11 0.000118631 1.46375e-13)
(-5.28033e-11 0.000128317 8.2668e-14)
(-5.08363e-11 0.000130654 7.79011e-14)
(-5.54353e-11 0.000140411 1.43056e-13)
(-6.02687e-11 0.000151109 1.4672e-13)
(-6.59663e-11 0.000161798 1.46496e-13)
(-6.97111e-11 0.000171495 8.14176e-14)
(-6.86466e-11 0.000173828 7.91454e-14)
(-7.21166e-11 0.000183578 1.42711e-13)
(-7.83386e-11 0.000194282 1.4838e-13)
(-8.24298e-11 0.00020506 1.49906e-13)
(-8.86785e-11 0.000215757 1.46734e-13)
(-9.21741e-11 0.000225461 8.2689e-14)
(-9.10442e-11 0.000227792 7.94083e-14)
(-9.47998e-11 0.000237537 1.45122e-13)
(-1.00488e-10 0.000248234 1.48112e-13)
(-1.05345e-10 0.000258926 1.46987e-13)
(-1.09983e-10 0.000268634 8.17542e-14)
(-1.07914e-10 0.000270963 7.9966e-14)
(-1.12451e-10 0.000280706 1.44691e-13)
(-1.1749e-10 0.000291402 1.48245e-13)
(-1.22879e-10 0.000302095 1.46408e-13)
(-1.27073e-10 0.000311805 8.17245e-14)
(-1.25375e-10 0.000314134 7.98475e-14)
(-1.29609e-10 0.000323874 1.44802e-13)
(-1.34898e-10 0.000334571 1.47994e-13)
(-1.40077e-10 0.000345263 1.46258e-13)
(-1.4444e-10 0.000354976 8.14739e-14)
(-1.42608e-10 0.000357305 7.99414e-14)
(-1.46954e-10 0.000367043 1.44739e-13)
(-1.5215e-10 0.00037774 1.47919e-13)
(-1.57402e-10 0.000388433 1.46047e-13)
(-1.61705e-10 0.000398147 8.13528e-14)
(-1.59921e-10 0.000400475 7.99561e-14)
(-1.64233e-10 0.000410212 1.44736e-13)
(-1.69452e-10 0.000420909 1.47823e-13)
(-1.74688e-10 0.000431602 1.45909e-13)
(-1.78996e-10 0.000441317 8.12298e-14)
(-1.77219e-10 0.000443645 7.99913e-14)
(-1.81517e-10 0.000453381 1.4471e-13)
(-1.86758e-10 0.000464078 1.47768e-13)
(-1.91961e-10 0.000474771 1.4577e-13)
(-1.96311e-10 0.000484487 8.11609e-14)
(-1.9448e-10 0.000486815 7.99815e-14)
(-1.98849e-10 0.000496551 1.44736e-13)
(-2.04002e-10 0.000507247 1.47663e-13)
(-2.09311e-10 0.00051794 1.45728e-13)
(-2.13531e-10 0.000527657 8.1012e-14)
(-2.1186e-10 0.000529985 8.00862e-14)
(-2.16037e-10 0.00053972 1.4462e-13)
(-2.21421e-10 0.000550416 1.47744e-13)
(-2.2645e-10 0.00056111 1.45484e-13)
(-2.31004e-10 0.000570828 8.11393e-14)
(-2.28933e-10 0.000573155 7.98672e-14)
(-2.33592e-10 0.000582889 1.44893e-13)
(-2.38397e-10 0.000593585 1.47363e-13)
(-2.44121e-10 0.000604279 1.45821e-13)
(-2.4784e-10 0.000613997 8.05906e-14)
(-2.46771e-10 0.000616325 8.04759e-14)
(-2.50231e-10 0.000626059 1.44207e-13)
(-2.56478e-10 0.000636761 1.48864e-13)
(-2.60551e-10 0.00064754 1.49376e-13)
(-2.66804e-10 0.00065824 1.45414e-13)
(-2.70277e-10 0.00066796 8.16087e-14)
(-2.6918e-10 0.000670288 7.99393e-14)
(-2.72915e-10 0.00068002 1.45452e-13)
(-2.78621e-10 0.000690716 1.47734e-13)
(-2.83451e-10 0.00070141 1.46066e-13)
(-2.88101e-10 0.00071113 8.0911e-14)
(-2.86028e-10 0.000713457 8.04613e-14)
(-2.90575e-10 0.00072319 1.4498e-13)
(-2.95607e-10 0.000733886 1.48045e-13)
(-3.00996e-10 0.00074458 1.45689e-13)
(-3.0518e-10 0.000754299 8.11116e-14)
(-3.03496e-10 0.000756627 8.02468e-14)
(-3.0772e-10 0.000766359 1.45124e-13)
(-3.13021e-10 0.000777055 1.47853e-13)
(-3.18184e-10 0.000787749 1.45741e-13)
(-3.22557e-10 0.000797469 8.0969e-14)
(-3.20715e-10 0.000799797 8.03209e-14)
(-3.25074e-10 0.000809529 1.45034e-13)
(-3.30258e-10 0.000820224 1.4786e-13)
(-3.35523e-10 0.000830918 1.45643e-13)
(-3.39804e-10 0.000840639 8.09573e-14)
(-3.38047e-10 0.000842967 8.02964e-14)
(-3.42328e-10 0.000852698 1.45022e-13)
(-3.47587e-10 0.000863394 1.47819e-13)
(-3.52775e-10 0.000874088 1.45585e-13)
(-3.57136e-10 0.000883809 8.09348e-14)
(-3.55294e-10 0.000886136 8.02688e-14)
(-3.59669e-10 0.000895868 1.45034e-13)
(-3.64822e-10 0.000906563 1.47738e-13)
(-3.70131e-10 0.000917257 1.45595e-13)
(-3.7435e-10 0.000926979 8.08288e-14)
(-3.72677e-10 0.000929306 8.03551e-14)
(-3.76854e-10 0.000939037 1.44904e-13)
(-3.82241e-10 0.000949733 1.47841e-13)
(-3.8727e-10 0.000960427 1.45388e-13)
(-3.91823e-10 0.000970148 8.09967e-14)
(-3.8975e-10 0.000972476 8.01123e-14)
(-3.94408e-10 0.000982207 1.45175e-13)
(-3.99218e-10 0.000992902 1.47465e-13)
(-4.04938e-10 0.0010036 1.45766e-13)
(-4.08661e-10 0.00101332 8.04668e-14)
(-4.07585e-10 0.00101565 8.07167e-14)
(-4.11047e-10 0.00102538 1.44467e-13)
(-4.17296e-10 0.00103608 1.48986e-13)
(-4.2137e-10 0.00104686 1.493e-13)
(-4.27622e-10 0.00105756 1.45212e-13)
(-4.31092e-10 0.00106728 8.1413e-14)
(-4.29999e-10 0.00106961 8.00663e-14)
(-4.33732e-10 0.00107934 1.45536e-13)
(-4.39441e-10 0.00109003 1.47692e-13)
(-4.44268e-10 0.00110073 1.45891e-13)
(-4.48918e-10 0.00111045 8.07517e-14)
(-4.46846e-10 0.00111278 8.05795e-14)
(-4.51393e-10 0.00112251 1.45077e-13)
(-4.56426e-10 0.0011332 1.4802e-13)
(-4.61813e-10 0.0011439 1.45549e-13)
(-4.65998e-10 0.00115362 8.09747e-14)
(-4.64312e-10 0.00115595 8.03628e-14)
(-4.68539e-10 0.00116568 1.45228e-13)
(-4.73836e-10 0.00117637 1.47844e-13)
(-4.79004e-10 0.00118707 1.45632e-13)
(-4.8337e-10 0.00119679 8.08481e-14)
(-4.81537e-10 0.00119912 8.04402e-14)
(-4.85885e-10 0.00120885 1.45135e-13)
(-4.91083e-10 0.00121954 1.47876e-13)
(-4.96331e-10 0.00123024 1.45544e-13)
(-5.00632e-10 0.00123996 8.08694e-14)
(-4.9885e-10 0.00124229 8.03939e-14)
(-5.03161e-10 0.00125202 1.4515e-13)
(-5.08385e-10 0.00126271 1.47817e-13)
(-5.13616e-10 0.00127341 1.45541e-13)
(-5.17925e-10 0.00128313 8.08185e-14)
(-5.16145e-10 0.00128546 8.04162e-14)
(-5.20445e-10 0.00129519 1.45102e-13)
(-5.25689e-10 0.00130588 1.47823e-13)
(-5.30889e-10 0.00131658 1.45475e-13)
(-5.35239e-10 0.0013263 8.08373e-14)
(-5.33406e-10 0.00132863 8.03652e-14)
(-5.37774e-10 0.00133836 1.45137e-13)
(-5.42934e-10 0.00134905 1.47739e-13)
(-5.48237e-10 0.00135974 1.45518e-13)
(-5.5246e-10 0.00136947 8.07336e-14)
(-5.50782e-10 0.0013718 8.046e-14)
(-5.54963e-10 0.00138152 1.45001e-13)
(-5.60348e-10 0.00139222 1.4786e-13)
(-5.65379e-10 0.00140291 1.45319e-13)
(-5.6993e-10 0.00141264 8.09209e-14)
(-5.67858e-10 0.00141496 8.02085e-14)
(-5.72514e-10 0.00142469 1.45281e-13)
(-5.77327e-10 0.00143539 1.47486e-13)
(-5.83045e-10 0.00144608 1.45718e-13)
(-5.8677e-10 0.00145581 8.03951e-14)
(-5.85692e-10 0.00145813 8.0818e-14)
(-5.89156e-10 0.00146786 1.44566e-13)
(-5.95404e-10 0.00147857 1.49021e-13)
(-5.99478e-10 0.00148934 1.49239e-13)
(-6.05729e-10 0.00150005 1.45092e-13)
(-6.09199e-10 0.00150977 8.13039e-14)
(-6.08108e-10 0.0015121 8.01174e-14)
(-6.11839e-10 0.00152183 1.45554e-13)
(-6.1755e-10 0.00153252 1.47649e-13)
(-6.22374e-10 0.00154322 1.4578e-13)
(-6.27026e-10 0.00155294 8.06605e-14)
(-6.24953e-10 0.00155527 8.06258e-14)
(-6.29502e-10 0.001565 1.45107e-13)
(-6.34533e-10 0.00157569 1.47982e-13)
(-6.39921e-10 0.00158638 1.45458e-13)
(-6.44103e-10 0.00159611 8.0888e-14)
(-6.42422e-10 0.00159844 8.0416e-14)
(-6.46645e-10 0.00160816 1.45257e-13)
(-6.51948e-10 0.00161886 1.47823e-13)
(-6.57108e-10 0.00162955 1.45546e-13)
(-6.61482e-10 0.00163928 8.07796e-14)
(-6.5964e-10 0.00164161 8.04837e-14)
(-6.64e-10 0.00165133 1.45181e-13)
(-6.69184e-10 0.00166203 1.47849e-13)
(-6.74447e-10 0.00167272 1.45486e-13)
(-6.78729e-10 0.00168245 8.07894e-14)
(-6.76971e-10 0.00168477 8.04612e-14)
(-6.81253e-10 0.0016945 1.45173e-13)
(-6.86513e-10 0.0017052 1.4783e-13)
(-6.917e-10 0.00171589 1.45454e-13)
(-6.9606e-10 0.00172562 8.07926e-14)
(-6.94219e-10 0.00172794 8.0428e-14)
(-6.98593e-10 0.00173767 1.45195e-13)
(-7.03748e-10 0.00174837 1.47763e-13)
(-7.09056e-10 0.00175906 1.45494e-13)
(-7.13275e-10 0.00176879 8.07027e-14)
(-7.116e-10 0.00177111 8.05155e-14)
(-7.15778e-10 0.00178084 1.45067e-13)
(-7.21166e-10 0.00179154 1.47884e-13)
(-7.26195e-10 0.00180223 1.45305e-13)
(-7.30747e-10 0.00181196 8.08915e-14)
(-7.28674e-10 0.00181428 8.02665e-14)
(-7.3333e-10 0.00182401 1.45347e-13)
(-7.38144e-10 0.00183471 1.47515e-13)
(-7.43862e-10 0.0018454 1.45709e-13)
(-7.47587e-10 0.00185513 8.03705e-14)
(-7.46507e-10 0.00185745 8.08758e-14)
(-7.49972e-10 0.00186718 1.44633e-13)
(-7.56221e-10 0.00187788 1.49054e-13)
(-7.60295e-10 0.00188866 1.49226e-13)
(-7.66545e-10 0.00189936 1.45046e-13)
(-7.70015e-10 0.00190909 8.12594e-14)
(-7.68925e-10 0.00191142 8.01506e-14)
(-7.72656e-10 0.00192114 1.45581e-13)
(-7.78367e-10 0.00193184 1.47642e-13)
(-7.8319e-10 0.00194253 1.45741e-13)
(-7.87843e-10 0.00195226 8.06206e-14)
(-7.8577e-10 0.00195458 8.06605e-14)
(-7.90318e-10 0.00196431 1.45136e-13)
(-7.9535e-10 0.00197501 1.47982e-13)
(-8.00737e-10 0.0019857 1.45423e-13)
(-8.04921e-10 0.00199543 8.08551e-14)
(-8.03237e-10 0.00199775 8.04481e-14)
(-8.07463e-10 0.00200748 1.45292e-13)
(-8.12762e-10 0.00201818 1.47822e-13)
(-8.17928e-10 0.00202887 1.45522e-13)
(-8.22294e-10 0.0020386 8.07435e-14)
(-8.20461e-10 0.00204092 8.0525e-14)
(-8.2481e-10 0.00205065 1.45209e-13)
(-8.30008e-10 0.00206135 1.47864e-13)
(-8.35255e-10 0.00207204 1.45453e-13)
(-8.39556e-10 0.00208177 8.07749e-14)
(-8.37775e-10 0.00208409 8.04813e-14)
(-8.42085e-10 0.00209382 1.45229e-13)
(-8.47311e-10 0.00210452 1.47818e-13)
(-8.5254e-10 0.00211521 1.45463e-13)
(-8.56849e-10 0.00212494 8.07361e-14)
(-8.55069e-10 0.00212726 8.0503e-14)
(-8.59369e-10 0.00213699 1.45188e-13)
(-8.64614e-10 0.00214769 1.47833e-13)
(-8.69813e-10 0.00215838 1.45413e-13)
(-8.74163e-10 0.00216811 8.0763e-14)
(-8.7233e-10 0.00217043 8.04541e-14)
(-8.76698e-10 0.00218016 1.45226e-13)
(-8.81859e-10 0.00219086 1.47759e-13)
(-8.87161e-10 0.00220155 1.45466e-13)
(-8.91385e-10 0.00221128 8.06694e-14)
(-8.89706e-10 0.0022136 8.0548e-14)
(-8.93887e-10 0.00222333 1.45095e-13)
(-8.99273e-10 0.00223403 1.47887e-13)
(-9.04304e-10 0.00224472 1.45279e-13)
(-9.08854e-10 0.00225444 8.08639e-14)
(-9.06782e-10 0.00225677 8.02975e-14)
(-9.11437e-10 0.0022665 1.45379e-13)
(-9.16253e-10 0.0022772 1.4752e-13)
(-9.21969e-10 0.00228789 1.45689e-13)
(-9.25695e-10 0.00229761 8.03446e-14)
(-9.24614e-10 0.00229994 8.09086e-14)
(-9.2808e-10 0.00230967 1.44665e-13)
(-9.34328e-10 0.00232037 1.49062e-13)
(-9.38403e-10 0.00233115 1.49202e-13)
(-9.44653e-10 0.00234185 1.45e-13)
(-9.48122e-10 0.00235158 8.12193e-14)
(-9.47033e-10 0.0023539 8.01667e-14)
(-9.50763e-10 0.00236363 1.45585e-13)
(-9.56475e-10 0.00237433 1.47623e-13)
(-9.61297e-10 0.00238502 1.45697e-13)
(-9.65951e-10 0.00239475 8.05851e-14)
(-9.63877e-10 0.00239707 8.06763e-14)
(-9.68427e-10 0.0024068 1.45144e-13)
(-9.73457e-10 0.0024175 1.47965e-13)
(-9.78846e-10 0.00242819 1.45386e-13)
(-9.83027e-10 0.00243792 8.08204e-14)
(-9.81347e-10 0.00244024 8.04674e-14)
(-9.85569e-10 0.00244997 1.453e-13)
(-9.90873e-10 0.00246067 1.47812e-13)
(-9.96032e-10 0.00247136 1.45484e-13)
(-1.00041e-09 0.00248108 8.07177e-14)
(-9.98564e-10 0.00248341 8.05375e-14)
(-1.00292e-09 0.00249314 1.45228e-13)
(-1.00811e-09 0.00250384 1.47846e-13)
(-1.01337e-09 0.00251453 1.45433e-13)
(-1.01765e-09 0.00252425 8.07347e-14)
(-1.0159e-09 0.00252658 8.05152e-14)
(-1.02018e-09 0.00253631 1.45225e-13)
(-1.02544e-09 0.00254701 1.47833e-13)
(-1.03062e-09 0.0025577 1.4541e-13)
(-1.03498e-09 0.00256742 8.07427e-14)
(-1.03314e-09 0.00256975 8.04841e-14)
(-1.03752e-09 0.00257948 1.4525e-13)
(-1.04267e-09 0.00259017 1.47773e-13)
(-1.04798e-09 0.00260087 1.45457e-13)
(-1.0522e-09 0.00261059 8.0659e-14)
(-1.05052e-09 0.00261292 8.05718e-14)
(-1.0547e-09 0.00262265 1.45126e-13)
(-1.06009e-09 0.00263334 1.47899e-13)
(-1.06512e-09 0.00264404 1.45276e-13)
(-1.06967e-09 0.00265376 8.08522e-14)
(-1.0676e-09 0.00265609 8.0324e-14)
(-1.07225e-09 0.00266582 1.45409e-13)
(-1.07707e-09 0.00267651 1.47535e-13)
(-1.08279e-09 0.00268721 1.45687e-13)
(-1.08651e-09 0.00269693 8.03352e-14)
(-1.08543e-09 0.00269926 8.0935e-14)
(-1.0889e-09 0.00270899 1.44696e-13)
(-1.09514e-09 0.00271969 1.49079e-13)
(-1.09922e-09 0.00273047 1.49199e-13)
(-1.10547e-09 0.00274117 1.44982e-13)
(-1.10894e-09 0.00275089 8.12008e-14)
(-1.10785e-09 0.00275322 8.01826e-14)
(-1.11158e-09 0.00276295 1.45599e-13)
(-1.11729e-09 0.00277365 1.47622e-13)
(-1.12211e-09 0.00278434 1.45682e-13)
(-1.12677e-09 0.00279406 8.05679e-14)
(-1.12469e-09 0.00279639 8.06935e-14)
(-1.12924e-09 0.00280612 1.45158e-13)
(-1.13427e-09 0.00281681 1.47967e-13)
(-1.13966e-09 0.00282751 1.45371e-13)
(-1.14385e-09 0.00283723 8.08073e-14)
(-1.14216e-09 0.00283956 8.04821e-14)
(-1.14639e-09 0.00284929 1.4532e-13)
(-1.15169e-09 0.00285998 1.47812e-13)
(-1.15685e-09 0.00287068 1.45477e-13)
(-1.16122e-09 0.0028804 8.06994e-14)
(-1.15939e-09 0.00288273 8.05609e-14)
(-1.16373e-09 0.00289246 1.45239e-13)
(-1.16893e-09 0.00290315 1.4786e-13)
(-1.17418e-09 0.00291385 1.45414e-13)
(-1.17848e-09 0.00292357 8.07354e-14)
(-1.1767e-09 0.0029259 8.05179e-14)
(-1.18101e-09 0.00293563 1.45263e-13)
(-1.18624e-09 0.00294632 1.47817e-13)
(-1.19146e-09 0.00295702 1.4543e-13)
(-1.19577e-09 0.00296674 8.07e-14)
(-1.19399e-09 0.00296907 8.05412e-14)
(-1.19829e-09 0.0029788 1.45224e-13)
(-1.20354e-09 0.00298949 1.47837e-13)
(-1.20874e-09 0.00300019 1.45384e-13)
(-1.21309e-09 0.00300991 8.07309e-14)
(-1.21125e-09 0.00301224 8.04928e-14)
(-1.21562e-09 0.00302197 1.45266e-13)
(-1.22078e-09 0.00303266 1.47767e-13)
(-1.22609e-09 0.00304336 1.45443e-13)
(-1.23031e-09 0.00305308 8.06401e-14)
(-1.22863e-09 0.00305541 8.05882e-14)
(-1.23281e-09 0.00306514 1.45137e-13)
(-1.2382e-09 0.00307583 1.47899e-13)
(-1.24323e-09 0.00308653 1.45261e-13)
(-1.24778e-09 0.00309625 8.08384e-14)
(-1.24571e-09 0.00309858 8.03378e-14)
(-1.25036e-09 0.00310831 1.45424e-13)
(-1.25518e-09 0.003119 1.47535e-13)
(-1.26089e-09 0.0031297 1.45676e-13)
(-1.26462e-09 0.00313942 8.03207e-14)
(-1.26354e-09 0.00314175 8.09512e-14)
(-1.267e-09 0.00315148 1.4471e-13)
(-1.27325e-09 0.00316218 1.49082e-13)
(-1.27733e-09 0.00317296 1.49184e-13)
(-1.28358e-09 0.00318366 1.44957e-13)
(-1.28705e-09 0.00319338 8.1179e-14)
(-1.28596e-09 0.00319571 8.01905e-14)
(-1.28969e-09 0.00320544 1.45599e-13)
(-1.2954e-09 0.00321613 1.47611e-13)
(-1.30022e-09 0.00322683 1.45658e-13)
(-1.30487e-09 0.00323655 8.05494e-14)
(-1.3028e-09 0.00323888 8.07e-14)
(-1.30735e-09 0.00324861 1.45162e-13)
(-1.31238e-09 0.0032593 1.47956e-13)
(-1.31777e-09 0.00327 1.45351e-13)
(-1.32195e-09 0.00327972 8.07871e-14)
(-1.32027e-09 0.00328205 8.04929e-14)
(-1.32449e-09 0.00329178 1.4532e-13)
(-1.3298e-09 0.00330247 1.47807e-13)
(-1.33496e-09 0.00331317 1.45454e-13)
(-1.33933e-09 0.00332289 8.06877e-14)
(-1.33749e-09 0.00332522 8.05636e-14)
(-1.34185e-09 0.00333495 1.45251e-13)
(-1.34703e-09 0.00334564 1.47844e-13)
(-1.3523e-09 0.00335634 1.45407e-13)
(-1.35658e-09 0.00336606 8.0707e-14)
(-1.35482e-09 0.00336839 8.05427e-14)
(-1.3591e-09 0.00337812 1.4525e-13)
(-1.36436e-09 0.00338881 1.47835e-13)
(-1.36955e-09 0.00339951 1.45388e-13)
(-1.37391e-09 0.00340923 8.07179e-14)
(-1.37207e-09 0.00341156 8.05121e-14)
(-1.37644e-09 0.00342129 1.45278e-13)
(-1.3816e-09 0.00343198 1.47778e-13)
(-1.3869e-09 0.00344268 1.45438e-13)
(-1.39112e-09 0.0034524 8.06362e-14)
(-1.38945e-09 0.00345473 8.06011e-14)
(-1.39363e-09 0.00346446 1.45157e-13)
(-1.39901e-09 0.00347515 1.47907e-13)
(-1.40404e-09 0.00348585 1.45261e-13)
(-1.4086e-09 0.00349557 8.08322e-14)
(-1.40652e-09 0.0034979 8.03535e-14)
(-1.41118e-09 0.00350762 1.45442e-13)
(-1.41599e-09 0.00351832 1.47545e-13)
(-1.42171e-09 0.00352901 1.45676e-13)
(-1.42544e-09 0.00353874 8.03164e-14)
(-1.42435e-09 0.00354107 8.09665e-14)
(-1.42782e-09 0.00355079 1.44729e-13)
(-1.43407e-09 0.0035615 1.49093e-13)
(-1.43814e-09 0.00357228 1.49184e-13)
(-1.44439e-09 0.00358298 1.44948e-13)
(-1.44786e-09 0.0035927 8.11694e-14)
(-1.44677e-09 0.00359503 8.01999e-14)
(-1.4505e-09 0.00360476 1.45608e-13)
(-1.45622e-09 0.00361545 1.47611e-13)
(-1.46104e-09 0.00362615 1.4565e-13)
(-1.46569e-09 0.00363587 8.05399e-14)
(-1.46362e-09 0.0036382 8.07109e-14)
(-1.46817e-09 0.00364793 1.45171e-13)
(-1.4732e-09 0.00365862 1.47959e-13)
(-1.47859e-09 0.00366932 1.45343e-13)
(-1.48277e-09 0.00367904 8.07811e-14)
(-1.48109e-09 0.00368137 8.0501e-14)
(-1.48531e-09 0.0036911 1.45334e-13)
(-1.49061e-09 0.00370179 1.47807e-13)
(-1.49578e-09 0.00371249 1.45453e-13)
(-1.50014e-09 0.00372221 8.06756e-14)
(-1.49831e-09 0.00372454 8.05803e-14)
(-1.50266e-09 0.00373427 1.45256e-13)
(-1.50786e-09 0.00374496 1.47857e-13)
(-1.5131e-09 0.00375565 1.45393e-13)
(-1.5174e-09 0.00376538 8.07133e-14)
(-1.51562e-09 0.00376771 8.05385e-14)
(-1.51993e-09 0.00377743 1.45281e-13)
(-1.52516e-09 0.00378813 1.47818e-13)
(-1.53039e-09 0.00379882 1.45412e-13)
(-1.5347e-09 0.00380855 8.06801e-14)
(-1.53292e-09 0.00381088 8.05623e-14)
(-1.53722e-09 0.0038206 1.45245e-13)
(-1.54246e-09 0.0038313 1.4784e-13)
(-1.54766e-09 0.00384199 1.45369e-13)
(-1.55201e-09 0.00385172 8.07126e-14)
(-1.55018e-09 0.00385405 8.0515e-14)
(-1.55455e-09 0.00386377 1.45288e-13)
(-1.55971e-09 0.00387447 1.47772e-13)
(-1.56501e-09 0.00388516 1.4543e-13)
(-1.56923e-09 0.00389489 8.06238e-14)
(-1.56755e-09 0.00389722 8.06107e-14)
(-1.57174e-09 0.00390694 1.45162e-13)
(-1.57712e-09 0.00391764 1.47906e-13)
(-1.58215e-09 0.00392833 1.45251e-13)
(-1.5867e-09 0.00393806 8.08235e-14)
(-1.58463e-09 0.00394039 8.03611e-14)
(-1.58929e-09 0.00395011 1.4545e-13)
(-1.5941e-09 0.00396081 1.47544e-13)
(-1.59982e-09 0.0039715 1.45668e-13)
(-1.60354e-09 0.00398123 8.03072e-14)
(-1.60246e-09 0.00398356 8.09756e-14)
(-1.60593e-09 0.00399328 1.44737e-13)
(-1.61218e-09 0.00400398 1.49093e-13)
(-1.61625e-09 0.00401476 1.49174e-13)
(-1.6225e-09 0.00402546 1.44932e-13)
(-1.62597e-09 0.00403519 8.11557e-14)
(-1.62488e-09 0.00403752 8.02041e-14)
(-1.62861e-09 0.00404724 1.45607e-13)
(-1.63432e-09 0.00405794 1.47604e-13)
(-1.63915e-09 0.00406863 1.45634e-13)
(-1.6438e-09 0.00407836 8.05282e-14)
(-1.64173e-09 0.00408069 8.07143e-14)
(-1.64628e-09 0.00409041 1.45172e-13)
(-1.65131e-09 0.00410111 1.47951e-13)
(-1.65669e-09 0.0041118 1.45331e-13)
(-1.66088e-09 0.00412153 8.07678e-14)
(-1.6592e-09 0.00412386 8.05077e-14)
(-1.66342e-09 0.00413358 1.45333e-13)
(-1.66872e-09 0.00414428 1.47804e-13)
(-1.67388e-09 0.00415497 1.45436e-13)
(-1.67825e-09 0.0041647 8.06696e-14)
(-1.67641e-09 0.00416703 8.05795e-14)
(-1.68077e-09 0.00417675 1.45265e-13)
(-1.68596e-09 0.00418745 1.47844e-13)
(-1.69122e-09 0.00419814 1.45391e-13)
(-1.6955e-09 0.00420787 8.06907e-14)
(-1.69374e-09 0.0042102 8.05589e-14)
(-1.69803e-09 0.00421992 1.45266e-13)
(-1.70329e-09 0.00423062 1.47836e-13)
(-1.70847e-09 0.00424131 1.45375e-13)
(-1.71283e-09 0.00425104 8.07027e-14)
(-1.71099e-09 0.00425337 8.05293e-14)
(-1.71537e-09 0.00426309 1.45295e-13)
(-1.72052e-09 0.00427379 1.47781e-13)
(-1.72583e-09 0.00428448 1.45427e-13)
(-1.73005e-09 0.00429421 8.06226e-14)
(-1.72837e-09 0.00429653 8.06186e-14)
(-1.73255e-09 0.00430626 1.45175e-13)
(-1.73794e-09 0.00431696 1.47911e-13)
(-1.74297e-09 0.00432765 1.45252e-13)
(-1.74752e-09 0.00433738 8.08198e-14)
(-1.74545e-09 0.0043397 8.03718e-14)
(-1.7501e-09 0.00434943 1.45462e-13)
(-1.75492e-09 0.00436013 1.47551e-13)
(-1.76063e-09 0.00437082 1.45669e-13)
(-1.76436e-09 0.00438055 8.0305e-14)
(-1.76328e-09 0.00438287 8.09856e-14)
(-1.76674e-09 0.0043926 1.4475e-13)
(-1.77299e-09 0.0044033 1.49101e-13)
(-1.77707e-09 0.00441408 1.49175e-13)
(-1.78332e-09 0.00442478 1.44926e-13)
(-1.78679e-09 0.00443451 8.11501e-14)
(-1.7857e-09 0.00443684 8.02104e-14)
(-1.78943e-09 0.00444656 1.45614e-13)
(-1.79514e-09 0.00445726 1.47604e-13)
(-1.79996e-09 0.00446795 1.45631e-13)
(-1.80462e-09 0.00447768 8.05223e-14)
(-1.80254e-09 0.00448001 8.0722e-14)
(-1.80709e-09 0.00448973 1.45178e-13)
(-1.81212e-09 0.00450043 1.47954e-13)
(-1.81751e-09 0.00451112 1.45326e-13)
(-1.82169e-09 0.00452085 8.07649e-14)
(-1.82001e-09 0.00452317 8.05125e-14)
(-1.82424e-09 0.0045329 1.45343e-13)
(-1.82954e-09 0.0045436 1.47803e-13)
(-1.8347e-09 0.00455429 1.45437e-13)
(-1.83907e-09 0.00456402 8.06604e-14)
(-1.83723e-09 0.00456634 8.05928e-14)
(-1.84158e-09 0.00457607 1.45266e-13)
(-1.84678e-09 0.00458677 1.47855e-13)
(-1.85203e-09 0.00459746 1.45379e-13)
(-1.85633e-09 0.00460719 8.06996e-14)
(-1.85455e-09 0.00460951 8.05513e-14)
(-1.85886e-09 0.00461924 1.45293e-13)
(-1.86408e-09 0.00462994 1.47817e-13)
(-1.86931e-09 0.00464063 1.454e-13)
(-1.87362e-09 0.00465036 8.06672e-14)
(-1.87184e-09 0.00465268 8.0576e-14)
(-1.87614e-09 0.00466241 1.45258e-13)
(-1.88139e-09 0.00467311 1.47841e-13)
(-1.88659e-09 0.0046838 1.45359e-13)
(-1.89094e-09 0.00469353 8.07011e-14)
(-1.8891e-09 0.00469585 8.05289e-14)
(-1.89347e-09 0.00470558 1.45303e-13)
(-1.89863e-09 0.00471628 1.47775e-13)
(-1.90393e-09 0.00472697 1.45422e-13)
(-1.90816e-09 0.0047367 8.0613e-14)
(-1.90648e-09 0.00473902 8.06255e-14)
(-1.91066e-09 0.00474875 1.45177e-13)
(-1.91605e-09 0.00475944 1.47911e-13)
(-1.92108e-09 0.00477014 1.45244e-13)
(-1.92563e-09 0.00477986 8.08142e-14)
(-1.92355e-09 0.00478219 8.0376e-14)
(-1.92821e-09 0.00479192 1.45467e-13)
(-1.93303e-09 0.00480261 1.47549e-13)
(-1.93874e-09 0.00481331 1.45663e-13)
(-1.94247e-09 0.00482303 8.02982e-14)
(-1.94139e-09 0.00482536 8.09917e-14)
(-1.94485e-09 0.00483509 1.44754e-13)
(-1.9511e-09 0.00484579 1.49101e-13)
(-1.95518e-09 0.00485657 1.49167e-13)
(-1.96143e-09 0.00486727 1.44915e-13)
(-1.96489e-09 0.004877 8.11403e-14)
(-1.96381e-09 0.00487932 8.02133e-14)
(-1.96754e-09 0.00488905 1.45613e-13)
(-1.97325e-09 0.00489975 1.47599e-13)
(-1.97807e-09 0.00491044 1.45619e-13)
(-1.98272e-09 0.00492017 8.05145e-14)
(-1.98065e-09 0.00492249 8.07234e-14)
(-1.9852e-09 0.00493222 1.45179e-13)
(-1.99023e-09 0.00494292 1.47947e-13)
(-1.99562e-09 0.00495361 1.45317e-13)
(-1.9998e-09 0.00496334 8.07547e-14)
(-1.99812e-09 0.00496566 8.05177e-14)
(-2.00234e-09 0.00497539 1.45341e-13)
(-2.00765e-09 0.00498609 1.47802e-13)
(-2.0128e-09 0.00499678 1.45424e-13)
(-2.01718e-09 0.00500651 8.06578e-14)
(-2.01534e-09 0.00500883 8.05898e-14)
(-2.0197e-09 0.00501856 1.45274e-13)
(-2.02488e-09 0.00502925 1.47843e-13)
(-2.03014e-09 0.00503995 1.45381e-13)
(-2.03443e-09 0.00504967 8.06796e-14)
(-2.03267e-09 0.005052 8.057e-14)
(-2.03695e-09 0.00506173 1.45276e-13)
(-2.04221e-09 0.00507242 1.47837e-13)
(-2.0474e-09 0.00508312 1.45365e-13)
(-2.05176e-09 0.00509284 8.06927e-14)
(-2.04992e-09 0.00509517 8.05406e-14)
(-2.05429e-09 0.0051049 1.45307e-13)
(-2.05945e-09 0.00511559 1.47782e-13)
(-2.06475e-09 0.00512629 1.45419e-13)
(-2.06897e-09 0.00513601 8.06132e-14)
(-2.0673e-09 0.00513834 8.06307e-14)
(-2.07148e-09 0.00514807 1.45187e-13)
(-2.07686e-09 0.00515876 1.47914e-13)
(-2.08189e-09 0.00516946 1.45245e-13)
(-2.08644e-09 0.00517918 8.08116e-14)
(-2.08437e-09 0.00518151 8.03839e-14)
(-2.08903e-09 0.00519124 1.45475e-13)
(-2.09384e-09 0.00520193 1.47555e-13)
(-2.09956e-09 0.00521263 1.45664e-13)
(-2.10329e-09 0.00522235 8.02971e-14)
(-2.1022e-09 0.00522468 8.09989e-14)
(-2.10567e-09 0.00523441 1.44764e-13)
(-2.11192e-09 0.00524511 1.49107e-13)
(-2.11599e-09 0.00525589 1.49169e-13)
(-2.12224e-09 0.00526659 1.44912e-13)
(-2.12571e-09 0.00527631 8.11368e-14)
(-2.12462e-09 0.00527864 8.02179e-14)
(-2.12835e-09 0.00528837 1.45618e-13)
(-2.13407e-09 0.00529906 1.476e-13)
(-2.13889e-09 0.00530976 1.45617e-13)
(-2.14354e-09 0.00531948 8.05105e-14)
(-2.14147e-09 0.00532181 8.07294e-14)
(-2.14602e-09 0.00533154 1.45184e-13)
(-2.15105e-09 0.00534223 1.4795e-13)
(-2.15643e-09 0.00535293 1.45314e-13)
(-2.16062e-09 0.00536265 8.07535e-14)
(-2.15893e-09 0.00536498 8.05207e-14)
(-2.16316e-09 0.00537471 1.45349e-13)
(-2.16846e-09 0.0053854 1.47801e-13)
(-2.17362e-09 0.0053961 1.45426e-13)
(-2.17799e-09 0.00540582 8.06502e-14)
(-2.17616e-09 0.00540815 8.06012e-14)
(-2.18051e-09 0.00541788 1.45273e-13)
(-2.18571e-09 0.00542857 1.47854e-13)
(-2.19095e-09 0.00543927 1.4537e-13)
(-2.19525e-09 0.00544899 8.06898e-14)
(-2.19347e-09 0.00545132 8.05604e-14)
(-2.19778e-09 0.00546105 1.45302e-13)
(-2.20301e-09 0.00547174 1.47818e-13)
(-2.20824e-09 0.00548244 1.45392e-13)
(-2.21255e-09 0.00549216 8.06585e-14)
(-2.21077e-09 0.00549449 8.05852e-14)
(-2.21507e-09 0.00550422 1.45267e-13)
(-2.22031e-09 0.00551491 1.47842e-13)
(-2.22551e-09 0.00552561 1.45352e-13)
(-2.22986e-09 0.00553533 8.06928e-14)
(-2.22803e-09 0.00553766 8.05389e-14)
(-2.23239e-09 0.00554739 1.45312e-13)
(-2.23756e-09 0.00555808 1.47777e-13)
(-2.24286e-09 0.00556878 1.45416e-13)
(-2.24708e-09 0.0055785 8.06058e-14)
(-2.2454e-09 0.00558083 8.06356e-14)
(-2.24958e-09 0.00559056 1.45188e-13)
(-2.25497e-09 0.00560125 1.47914e-13)
(-2.26e-09 0.00561195 1.45239e-13)
(-2.26455e-09 0.00562167 8.08073e-14)
(-2.26248e-09 0.005624 8.03867e-14)
(-2.26713e-09 0.00563373 1.45478e-13)
(-2.27195e-09 0.00564442 1.47553e-13)
(-2.27767e-09 0.00565512 1.45659e-13)
(-2.28139e-09 0.00566484 8.02921e-14)
(-2.28031e-09 0.00566717 8.10028e-14)
(-2.28378e-09 0.0056769 1.44767e-13)
(-2.29003e-09 0.0056876 1.49106e-13)
(-2.2941e-09 0.00569838 1.49163e-13)
(-2.30035e-09 0.00570908 1.44904e-13)
(-2.30382e-09 0.0057188 8.11297e-14)
(-2.30273e-09 0.00572113 8.02195e-14)
(-2.30646e-09 0.00573086 1.45617e-13)
(-2.31217e-09 0.00574155 1.47596e-13)
(-2.31699e-09 0.00575225 1.45608e-13)
(-2.32165e-09 0.00576197 8.05046e-14)
(-2.31957e-09 0.0057643 8.07302e-14)
(-2.32412e-09 0.00577403 1.45184e-13)
(-2.32915e-09 0.00578472 1.47945e-13)
(-2.33454e-09 0.00579542 1.45308e-13)
(-2.33872e-09 0.00580514 8.07457e-14)
(-2.33704e-09 0.00580747 8.05246e-14)
(-2.34127e-09 0.0058172 1.45347e-13)
(-2.34657e-09 0.00582789 1.47801e-13)
(-2.35173e-09 0.00583859 1.45415e-13)
(-2.3561e-09 0.00584831 8.06491e-14)
(-2.35426e-09 0.00585064 8.05974e-14)
(-2.35862e-09 0.00586037 1.45281e-13)
(-2.36381e-09 0.00587106 1.47842e-13)
(-2.36907e-09 0.00588176 1.45373e-13)
(-2.37335e-09 0.00589148 8.06719e-14)
(-2.37159e-09 0.00589381 8.05776e-14)
(-2.37587e-09 0.00590354 1.45284e-13)
(-2.38114e-09 0.00591423 1.47837e-13)
(-2.38632e-09 0.00592493 1.45359e-13)
(-2.39068e-09 0.00593465 8.06853e-14)
(-2.38884e-09 0.00593698 8.0549e-14)
(-2.39321e-09 0.00594671 1.45315e-13)
(-2.39837e-09 0.0059574 1.47784e-13)
(-2.40368e-09 0.0059681 1.45414e-13)
(-2.4079e-09 0.00597782 8.06068e-14)
(-2.40622e-09 0.00598015 8.06391e-14)
(-2.4104e-09 0.00598987 1.45196e-13)
(-2.41579e-09 0.00600057 1.47916e-13)
(-2.42082e-09 0.00601126 1.45241e-13)
(-2.42537e-09 0.00602099 8.08054e-14)
(-2.4233e-09 0.00602332 8.03929e-14)
(-2.42795e-09 0.00603304 1.45485e-13)
(-2.43277e-09 0.00604374 1.47558e-13)
(-2.43848e-09 0.00605443 1.4566e-13)
(-2.44221e-09 0.00606416 8.02916e-14)
(-2.44113e-09 0.00606649 8.10081e-14)
(-2.44459e-09 0.00607621 1.44774e-13)
(-2.45084e-09 0.00608692 1.4911e-13)
(-2.45492e-09 0.00609769 1.49164e-13)
(-2.46117e-09 0.0061084 1.44902e-13)
(-2.46463e-09 0.00611812 8.11274e-14)
(-2.46355e-09 0.00612045 8.0223e-14)
(-2.46728e-09 0.00613018 1.45621e-13)
(-2.47299e-09 0.00614087 1.47597e-13)
(-2.47781e-09 0.00615157 1.45608e-13)
(-2.48246e-09 0.00616129 8.05016e-14)
(-2.48039e-09 0.00616362 8.0735e-14)
(-2.48494e-09 0.00617335 1.45188e-13)
(-2.48997e-09 0.00618404 1.47948e-13)
(-2.49536e-09 0.00619474 1.45305e-13)
(-2.49954e-09 0.00620446 8.07456e-14)
(-2.49786e-09 0.00620679 8.05264e-14)
(-2.50208e-09 0.00621651 1.45354e-13)
(-2.50738e-09 0.00622721 1.47799e-13)
(-2.51255e-09 0.0062379 1.45419e-13)
(-2.51692e-09 0.00624763 8.06424e-14)
(-2.51508e-09 0.00624996 8.06076e-14)
(-2.51943e-09 0.00625968 1.45279e-13)
(-2.52463e-09 0.00627038 1.47854e-13)
(-2.52988e-09 0.00628107 1.45362e-13)
(-2.53418e-09 0.0062908 8.0683e-14)
(-2.5324e-09 0.00629313 8.05668e-14)
(-2.53671e-09 0.00630285 1.45308e-13)
(-2.54193e-09 0.00631355 1.47817e-13)
(-2.54716e-09 0.00632424 1.45386e-13)
(-2.55147e-09 0.00633397 8.06518e-14)
(-2.54969e-09 0.0063363 8.05923e-14)
(-2.55399e-09 0.00634602 1.45274e-13)
(-2.55924e-09 0.00635672 1.47843e-13)
(-2.56444e-09 0.00636741 1.45347e-13)
(-2.56878e-09 0.00637714 8.0687e-14)
(-2.56695e-09 0.00637947 8.05459e-14)
(-2.57132e-09 0.00638919 1.4532e-13)
(-2.57648e-09 0.00639989 1.47778e-13)
(-2.58178e-09 0.00641058 1.45412e-13)
(-2.58601e-09 0.00642031 8.06001e-14)
(-2.58433e-09 0.00642264 8.06433e-14)
(-2.58851e-09 0.00643236 1.45196e-13)
(-2.59389e-09 0.00644306 1.47916e-13)
(-2.59893e-09 0.00645375 1.45235e-13)
(-2.60348e-09 0.00646348 8.08026e-14)
(-2.6014e-09 0.00646581 8.03944e-14)
(-2.60606e-09 0.00647553 1.45487e-13)
(-2.61088e-09 0.00648623 1.47556e-13)
(-2.61659e-09 0.00649692 1.45657e-13)
(-2.62032e-09 0.00650665 8.02873e-14)
(-2.61923e-09 0.00650898 8.10113e-14)
(-2.6227e-09 0.0065187 1.44775e-13)
(-2.62895e-09 0.0065294 1.4911e-13)
(-2.63302e-09 0.00654018 1.49159e-13)
(-2.63927e-09 0.00655088 1.44895e-13)
(-2.64274e-09 0.00656061 8.11214e-14)
(-2.64166e-09 0.00656294 8.02244e-14)
(-2.64538e-09 0.00657266 1.45619e-13)
(-2.6511e-09 0.00658336 1.47593e-13)
(-2.65592e-09 0.00659405 1.456e-13)
(-2.66057e-09 0.00660378 8.04975e-14)
(-2.6585e-09 0.00660611 8.07349e-14)
(-2.66305e-09 0.00661583 1.45188e-13)
(-2.66808e-09 0.00662653 1.47943e-13)
(-2.67347e-09 0.00663722 1.45301e-13)
(-2.67765e-09 0.00664695 8.07387e-14)
(-2.67597e-09 0.00664928 8.053e-14)
(-2.68019e-09 0.006659 1.45351e-13)
(-2.6855e-09 0.0066697 1.478e-13)