/*--------------------------------*- C++ -*----------------------------------*\
| =========                 |                                                 |
| \\      /  F ield         | OpenFOAM: The Open Source CFD Toolbox           |
|  \\    /   O peration     | Version:  2206                                  |
|   \\  /    A nd           | Website:  www.openfoam.com                      |
|    \\/     M anipulation  |                                                 |
\*---------------------------------------------------------------------------*/
FoamFile
{
    version     2.0;
    format      ascii;
    arch        "LSB;label=32;scalar=64";
    class       surfaceScalarField;
    location    "9";
    object      phi;
}
// * * * * * * * * * * * * * * * * * * * * * * * * * * * * * * * * * * * * * //

dimensions      [0 3 -1 0 0 0 0];

oriented        oriented;

internalField   nonuniform List<scalar> 
65994
(
-2.43041e-12
2.43237e-12
8.44919e-13
-3.27533e-12
7.21392e-13
1.23527e-13
2.30025e-12
-1.57886e-12
-1.04077e-12
3.34103e-12
-1.04077e-12
1.6314e-11
-1.38816e-11
2.75968e-11
-1.45581e-11
2.10011e-11
6.71925e-12
1.3496e-11
5.92623e-12
-4.54785e-13
1.72919e-11
-1.49556e-12
2.23416e-11
-3.62233e-11
1.42103e-11
-6.42683e-12
7.35829e-12
1.35713e-11
6.22468e-12
7.05984e-12
-2.24471e-12
2.57612e-11
-3.74026e-12
-2.47204e-11
-1.15028e-11
-3.46631e-11
3.51591e-12
-1.66805e-11
-4.41135e-12
-7.44534e-12
-2.17527e-12
9.13071e-12
9.18522e-12
5.39045e-12
-1.8673e-11
7.17021e-12
-3.27548e-11
1.75978e-11
-3.68359e-11
-3.30299e-13
-2.74294e-11
-1.15817e-11
-9.04779e-12
-9.19635e-12
-3.65735e-12
1.15158e-11
-4.34556e-12
1.57596e-11
1.33539e-11
-6.46625e-12
2.18956e-11
-2.11872e-11
3.1392e-12
-2.6929e-11
-3.45453e-12
-3.05863e-11
1.13476e-11
-1.56931e-11
1.06898e-11
1.40117e-11
-1.55004e-11
4.80858e-11
-3.80083e-11
2.56472e-11
-3.81704e-11
-3.29246e-12
-6.87567e-11
2.10211e-11
-3.67142e-11
2.09296e-11
1.41033e-11
8.49258e-13
6.81661e-11
-6.50266e-12
3.29991e-11
-1.27767e-11
2.9816e-12
-8.15334e-11
-1.20859e-11
-2.46282e-11
-1.74563e-11
1.94737e-11
2.04703e-11
3.02396e-11
3.70242e-11
1.64452e-11
4.57629e-12
3.54296e-11
-7.69571e-11
1.3007e-11
-3.76352e-11
4.74895e-11
-1.50089e-11
5.74106e-11
2.03185e-11
6.27558e-12
6.75802e-11
-1.01002e-11
5.18054e-11
-8.70574e-11
3.95844e-11
-7.72196e-11
7.18429e-11
-4.72674e-11
4.05934e-11
5.1568e-11
4.54314e-11
6.27423e-11
7.00985e-11
2.71382e-11
-1.69589e-11
-6.47145e-11
-1.25051e-11
-1.33711e-10
2.17294e-11
-7.89379e-11
-3.20546e-12
1.59679e-11
-3.21635e-11
7.19549e-11
-2.88488e-11
5.49961e-11
-1.03155e-10
9.06504e-11
-1.47878e-10
6.64518e-11
-8.91228e-11
-6.19604e-11
-3.39867e-11
-8.72996e-11
1.04022e-11
-7.32377e-11
6.53983e-11
-1.34634e-11
1.04114e-10
1.51032e-11
3.78852e-11
1.92115e-11
-6.60688e-11
8.07887e-12
-7.6167e-11
7.80226e-12
-7.29611e-11
7.32005e-11
4.12284e-11
6.28854e-11
4.05941e-11
3.85194e-11
-1.28724e-11
-1.26023e-11
-2.49211e-11
-6.41183e-11
-1.47734e-11
-8.31087e-11
5.84271e-11
2.75939e-11
3.52914e-11
6.1292e-11
4.82121e-12
7.9986e-11
-3.12963e-11
7.56036e-11
-5.97359e-11
1.3845e-12
-8.88973e-12
5.98116e-11
2.21906e-11
1.31009e-11
7.15491e-11
-4.45372e-11
9.7979e-11
-5.77261e-11
8.006e-11
-4.18168e-11
5.60631e-12
6.5564e-11
6.54179e-11
3.37586e-11
-2.06577e-11
4.36578e-11
-5.44365e-11
3.37948e-11
-4.78631e-11
1.9225e-11
-2.7247e-11
1.15785e-12
8.36312e-11
6.65758e-11
4.58128e-11
-6.64705e-11
5.22769e-11
-6.09006e-11
4.38645e-12
2.73678e-14
-1.99514e-11
-2.90921e-12
-1.6665e-11
8.03449e-11
4.99108e-11
4.93737e-11
-1.15844e-10
3.53661e-11
-4.6893e-11
9.75603e-12
2.56374e-11
-5.53868e-11
6.22337e-11
-1.62618e-11
4.12199e-11
3.36489e-11
-6.59998e-12
-1.09244e-10
-3.5596e-11
-1.7897e-11
-2.04124e-11
1.04539e-11
-4.01087e-11
8.193e-11
-8.44853e-12
9.55971e-12
2.52004e-11
-5.24709e-11
-5.67732e-11
-4.95247e-11
-2.08431e-11
-1.24377e-11
-2.66332e-11
6.10266e-11
8.46579e-12
3.01405e-11
4.04458e-11
5.53409e-11
-1.14195e-11
-4.53537e-11
3.71279e-11
-6.93904e-11
8.20031e-11
-7.15084e-11
8.54411e-11
5.02788e-12
4.47084e-11
8.11784e-11
1.00049e-10
4.48794e-11
-9.02331e-11
8.04035e-11
-1.04915e-10
1.11149e-10
-1.02254e-10
7.85372e-11
3.76395e-11
2.47595e-11
1.34956e-10
1.24809e-10
3.17722e-11
-1.22005e-10
3.16428e-11
-1.04785e-10
1.68066e-11
-8.74175e-11
-8.04576e-12
6.2492e-11
-2.51673e-11
1.52078e-10
9.96415e-11
4.11386e-12
-1.26119e-10
-3.03707e-11
-7.03006e-11
-1.23271e-10
5.48319e-12
-2.0072e-10
1.39941e-10
-1.41775e-10
9.31325e-11
-4.21333e-11
-2.61333e-11
-9.99858e-11
-8.45304e-11
-1.19035e-11
-1.62219e-10
8.31721e-11
-1.77357e-10
1.55078e-10
-1.18582e-10
3.43577e-11
-1.60715e-10
-3.39177e-11
-6.60681e-11
-7.39054e-11
2.80842e-11
-1.508e-10
1.60067e-10
-5.76953e-11
6.19732e-11
-3.30148e-11
9.67722e-12
-1.9373e-10
4.83317e-11
-1.144e-10
-7.37308e-12
8.3789e-11
-1.76331e-10
3.29025e-10
-2.05805e-10
9.14471e-11
8.26289e-12
-2.04391e-10
-1.85467e-10
-8.04786e-11
-3.39211e-11
-2.71164e-10
2.74474e-10
-2.71877e-10
3.29739e-10
-1.36993e-10
-4.34376e-11
4.82254e-13
-3.41866e-10
-1.84985e-10
-1.09001e-10
7.50799e-11
-4.67633e-11
2.12236e-10
8.68974e-11
1.96078e-10
1.61468e-10
-1.18008e-10
-6.57627e-11
-1.14635e-10
-2.50748e-10
1.26066e-11
6.24733e-11
2.83128e-10
-5.82854e-11
5.32125e-10
-5.29184e-11
5.07065e-10
-9.29483e-11
1.97174e-10
1.95256e-10
-5.35737e-11
5.27095e-11
9.76384e-12
7.71773e-11
-8.27531e-11
3.91151e-11
-1.48562e-11
7.40599e-11
-1.27893e-10
2.23548e-10
4.57675e-11
1.69975e-10
3.93474e-11
-2.95835e-11
-6.07125e-11
1.73067e-11
-2.24385e-10
1.48816e-10
-2.84418e-10
-6.78596e-11
-1.28352e-10
-1.10299e-10
4.1623e-11
-3.179e-11
2.2065e-12
-5.51118e-11
4.06286e-11
-9.18214e-14
9.37963e-11
-1.0547e-10
3.75187e-11
-2.08708e-10
-7.06133e-12
-1.67085e-10
5.48715e-11
-5.2665e-11
3.51777e-11
6.03224e-11
5.20097e-11
7.69643e-11
-6.76165e-11
1.57145e-10
-5.03194e-11
-2.43584e-11
-2.17404e-10
1.21851e-10
-1.74516e-10
2.32436e-11
1.5893e-10
-5.31759e-11
1.53384e-10
-2.1555e-11
1.25524e-10
-5.36337e-12
-4.055e-11
-2.22768e-10
-1.13455e-10
-6.1061e-11
-1.23255e-10
1.6873e-10
-1.18439e-10
1.48568e-10
7.22075e-11
-6.51227e-11
8.34774e-11
-5.18199e-11
-1.3929e-10
-1.32856e-10
7.17948e-11
-7.1557e-11
1.07431e-10
5.72098e-12
7.12902e-11
-8.78786e-11
2.84768e-11
-3.02931e-11
-1.09405e-10
-1.69584e-10
-2.89567e-12
7.46904e-11
9.39359e-11
1.05994e-11
9.00107e-11
7.52153e-11
-4.6179e-11
1.64667e-10
-6.90583e-11
-8.6526e-11
-2.38642e-10
3.01116e-11
4.45789e-11
1.08792e-10
-6.8081e-11
2.48639e-10
-6.46321e-11
3.21918e-10
9.13878e-11
1.55071e-10
8.03212e-11
-8.35709e-11
7.29789e-11
-2.84e-11
1.37962e-10
-1.33064e-10
2.03781e-10
-1.30451e-10
1.73991e-10
1.21177e-10
8.22074e-11
1.72105e-10
-1.36353e-12
5.01094e-11
-7.85094e-11
2.60295e-11
-1.08984e-10
-2.00736e-11
-8.43477e-11
4.27099e-13
1.00677e-10
-8.97021e-12
1.81502e-10
-1.03337e-11
-3.02425e-11
-4.82669e-11
-4.94254e-11
-8.98012e-11
-5.64913e-11
-7.72818e-11
-3.25849e-11
7.67701e-11
-2.2395e-11
1.71312e-10
-3.27287e-11
-9.77124e-11
4.94455e-11
-2.81437e-10
9.39232e-11
-3.25854e-10
-3.28648e-11
-2.69986e-10
2.09018e-11
-7.72198e-11
-2.14534e-11
-1.09949e-10
1.79444e-10
-1.29999e-10
2.50578e-10
2.27896e-11
2.03796e-10
1.39174e-11
1.31779e-10
9.29182e-11
1.02982e-10
7.3436e-12
-6.96624e-12
-9.40316e-11
-3.59673e-11
-2.40001e-10
1.68759e-10
-2.46457e-10
2.03728e-11
-8.69933e-12
-1.44839e-10
6.46747e-11
-6.60304e-11
5.77084e-11
-3.05026e-10
2.69058e-10
-5.61918e-10
4.25652e-10
-8.86096e-10
3.44551e-10
-5.07108e-10
-5.23828e-10
-2.74005e-10
-2.99133e-10
-2.16296e-10
2.42874e-10
2.61843e-11
4.12563e-10
2.55963e-10
3.28195e-10
4.28918e-10
-3.42768e-11
-1.61355e-10
-1.04648e-10
-2.28762e-10
-3.20944e-10
2.05335e-10
-1.7915e-10
4.36431e-10
2.48665e-11
7.92864e-10
7.24857e-11
4.67048e-10
1.6446e-10
1.95655e-10
4.26313e-11
-1.25289e-10
4.55884e-12
-1.83709e-10
1.61517e-10
-1.32092e-10
2.32732e-10
1.27045e-12
8.19099e-11
3.15282e-10
2.19622e-11
1.02579e-10
-1.03327e-10
1.23606e-10
-3.07315e-10
1.637e-10
-1.72185e-10
2.69732e-10
-1.04762e-10
2.76419e-10
3.08595e-10
8.76253e-11
2.91373e-10
-1.57019e-11
2.50739e-12
-3.09823e-10
-4.24775e-11
-1.272e-10
-7.68359e-11
-7.04033e-11
5.13157e-11
1.80443e-10
1.10072e-12
3.41588e-10
-1.46012e-11
7.11073e-11
-3.8093e-10
1.23937e-10
-1.8003e-10
5.28891e-11
6.44537e-13
1.93894e-11
2.13943e-10
9.86516e-12
3.51112e-10
-4.73605e-12
2.92373e-11
-4.10167e-10
1.09672e-10
-2.60464e-10
1.25236e-10
-1.49194e-11
9.44858e-11
2.44693e-10
7.19258e-11
3.73672e-10
6.71897e-11
-1.06944e-11
-3.99473e-10
5.82564e-11
-3.29415e-10
1.71402e-10
-1.28065e-10
2.16166e-10
1.99928e-10
1.2165e-10
4.68189e-10
1.88839e-10
-3.15333e-11
-3.6794e-10
2.04812e-11
-3.81429e-10
1.36229e-10
-2.43813e-10
2.23157e-10
1.13001e-10
1.22089e-10
5.69256e-10
3.10929e-10
-1.16669e-11
-3.56273e-10
1.22328e-11
-4.05329e-10
-3.22546e-11
-1.99325e-10
3.505e-12
7.72415e-11
3.42405e-11
5.38521e-10
3.45169e-10
9.85784e-11
-4.54851e-10
-4.24902e-11
-2.6426e-10
-3.96328e-10
1.54513e-10
-3.81915e-10
6.28283e-11
-1.67558e-10
3.24164e-10
1.77611e-10
3.77901e-11
-4.92641e-10
-2.40908e-10
1.44381e-11
-5.70024e-10
4.83629e-10
-5.60873e-10
5.36769e-11
-2.7683e-10
4.01204e-11
-9.92184e-11
-3.70257e-11
-4.55615e-10
-3.86217e-11
1.60341e-11
6.15804e-11
3.83426e-10
-1.20804e-10
2.36061e-10
-1.14869e-10
3.41857e-11
-2.14088e-10
-4.24845e-11
-4.13131e-10
8.2264e-11
-1.08714e-10
3.22794e-10
1.42897e-10
1.78373e-10
3.80482e-10
-1.37606e-12
2.13935e-10
-2.15464e-10
-5.11016e-11
-3.62029e-10
-5.36059e-11
-1.0621e-10
1.87323e-11
7.05584e-11
7.43928e-11
3.24822e-10
-2.24738e-11
3.10801e-10
-2.37938e-10
1.86776e-11
-3.80707e-10
5.97963e-11
-1.47329e-10
1.05551e-10
2.48038e-11
1.58438e-10
2.71935e-10
8.00556e-11
3.89183e-10
-1.57882e-10
4.98279e-11
-4.30535e-10
1.39211e-10
-2.36712e-10
2.02939e-10
-3.89241e-11
2.52114e-10
2.2276e-10
1.72288e-10
4.69009e-10
1.44057e-11
4.0882e-11
-4.71417e-10
8.93069e-11
-2.85136e-10
7.41033e-11
-2.37205e-11
7.58322e-11
2.21031e-10
8.10064e-11
4.63835e-10
9.5412e-11
2.04899e-11
-4.91907e-10
3.9837e-12
-2.6863e-10
-4.93697e-11
2.96329e-11
-7.53019e-11
2.46963e-10
-1.70298e-11
4.05563e-10
7.83823e-11
1.64262e-11
-5.08333e-10
1.03566e-11
-2.62561e-10
3.15892e-12
3.68306e-11
-6.67018e-12
2.56792e-10
-1.25577e-12
4.00149e-10
7.71265e-11
4.62643e-11
-5.54597e-10
7.81591e-11
-2.94456e-10
8.71621e-11
2.78275e-11
7.56373e-11
2.68317e-10
2.1577e-11
4.54209e-10
9.87035e-11
7.58829e-11
-6.3048e-10
1.4297e-10
-3.61543e-10
1.81108e-10
-1.03099e-11
1.58175e-10
2.9125e-10
4.51105e-11
5.67273e-10
1.43814e-10
1.58281e-11
-6.46308e-10
4.48893e-11
-3.90604e-10
7.75484e-11
-4.2969e-11
9.25097e-11
2.76289e-10
5.78899e-11
6.01893e-10
2.01704e-10
-6.36094e-11
-5.82699e-10
-1.1365e-10
-3.40563e-10
-1.29748e-10
-2.68703e-11
-8.53396e-11
2.3188e-10
1.69838e-11
4.9957e-10
2.18688e-10
-8.65481e-11
-4.96151e-10
-1.34168e-10
-2.92944e-10
-9.19263e-11
-6.91116e-11
-3.3547e-11
1.735e-10
1.97213e-11
4.46302e-10
2.38409e-10
-6.05563e-11
-4.35594e-10
-3.51449e-11
-3.18355e-10
8.17424e-11
-1.85999e-10
1.45188e-10
1.10055e-10
8.04154e-11
5.11074e-10
3.18824e-10
5.88034e-11
-4.94398e-10
1.38881e-10
-3.98433e-10
1.78572e-10
-2.2569e-10
1.49739e-10
1.38888e-10
9.30321e-11
5.67781e-10
4.11857e-10
5.15861e-11
-5.45984e-10
-9.32059e-12
-3.37526e-10
-1.54892e-10
-8.01183e-11
-2.45929e-10
2.29925e-10
-7.06569e-11
3.92509e-10
3.412e-10
-1.2806e-10
-4.17923e-10
-3.66665e-10
-9.8922e-11
-5.52073e-10
1.0529e-10
-4.93914e-10
1.71766e-10
-3.08555e-10
2.07151e-10
3.26443e-11
-1.13538e-10
-3.04386e-10
-3.46399e-10
1.33939e-10
-6.52399e-10
4.1129e-10
-5.4974e-10
6.91067e-11
-4.19137e-10
7.65475e-11
-3.86492e-10
2.34763e-10
-5.39149e-10
1.14727e-10
2.53975e-10
-3.37201e-10
8.63218e-10
-4.99144e-10
2.3105e-10
-3.54086e-10
-6.85105e-11
-7.40579e-10
7.26514e-11
-6.118e-10
2.59e-10
6.76267e-11
9.56079e-10
1.66138e-10
8.46784e-10
3.40345e-10
5.37431e-10
2.40843e-10
-2.03148e-10
-2.59044e-10
-3.52756e-10
-3.24748e-11
-1.58943e-10
6.42006e-10
-5.08343e-10
1.16553e-09
-1.83175e-10
7.91259e-10
6.1511e-10
5.88112e-10
1.05756e-10
-4.58513e-10
2.37834e-10
-2.9102e-10
-1.27525e-10
-1.42983e-10
-1.67621e-10
-1.43079e-10
-8.14863e-12
4.55637e-10
5.79963e-10
9.50693e-11
-5.53582e-10
-4.21146e-10
2.25195e-10
-1.00958e-09
4.45455e-10
-1.46118e-09
3.08516e-10
-8.39526e-10
-1.66016e-10
-2.59563e-10
-6.50819e-11
-4.885e-10
-1.70572e-10
3.30685e-10
-1.38376e-10
4.13259e-10
-3.8876e-10
5.589e-10
-4.71186e-10
-8.35904e-11
-7.30749e-10
3.85906e-11
-5.27091e-10
3.93092e-10
-2.38169e-11
5.26908e-10
2.79443e-10
4.90183e-10
5.95625e-10
2.36427e-10
1.70166e-10
-4.94322e-10
-2.43397e-10
-2.83694e-10
-5.30412e-10
2.63198e-10
-7.24322e-10
4.73354e-10
-4.13529e-10
2.84832e-10
-5.47497e-12
-2.37887e-10
-4.99797e-10
-2.02021e-10
-8.16723e-11
-3.13692e-10
3.74869e-10
-3.75543e-10
5.35204e-10
-1.73731e-10
8.30197e-11
-1.69576e-10
-2.42042e-10
-6.69372e-10
-3.21164e-10
2.39491e-10
-4.97122e-10
5.50827e-10
-4.36976e-10
4.75058e-10
-4.13755e-10
5.97986e-11
-3.55996e-10
-2.99802e-10
-1.02537e-09
-1.29541e-10
3.69033e-10
2.92348e-11
3.92051e-10
1.33647e-10
3.70646e-10
2.89868e-10
-9.64222e-11
3.16305e-10
-3.26238e-10
-7.09063e-10
2.39242e-10
1.2979e-10
7.03903e-10
-7.26099e-11
9.45048e-10
1.29501e-10
8.67932e-10
-1.93059e-11
5.04134e-10
3.75595e-11
-2.04929e-10
4.03164e-10
-2.73374e-10
3.6394e-10
-3.3386e-11
2.29778e-10
2.63664e-10
-2.67203e-11
2.37192e-10
-9.67143e-11
1.07554e-10
-3.01644e-10
8.55989e-11
-3.58973e-10
-1.04778e-10
1.56991e-10
-1.21225e-10
2.80111e-10
2.74133e-10
-1.58165e-10
1.90666e-10
1.91021e-10
-1.10978e-10
-4.10504e-10
5.15316e-11
-3.74129e-10
1.20615e-10
1.287e-10
-2.22718e-10
6.38936e-10
-6.68402e-10
6.66175e-10
1.63782e-10
5.55197e-10
-4.5042e-10
5.01951e-10
-5.64124e-10
2.3432e-10
-1.89507e-10
-5.97334e-10
-1.63316e-10
-6.94593e-10
3.1192e-11
-3.07255e-11
5.86389e-10
4.21113e-10
8.0838e-11
7.73174e-10
-1.17741e-10
8.48184e-10
-6.72344e-10
5.29837e-10
-3.76246e-10
-1.11096e-11
5.10221e-10
5.75279e-10
3.30365e-10
-2.49527e-10
5.18387e-10
-3.05763e-10
2.21249e-10
-3.75206e-10
5.87452e-11
-2.13742e-10
-1.69575e-10
7.38541e-10
4.05704e-10
2.3485e-12
-2.51876e-10
-2.69746e-10
-3.36685e-11
-6.92885e-10
4.79331e-11
-9.33056e-10
2.64288e-11
-5.63854e-10
3.69339e-10
-1.5815e-10
-8.33581e-11
-1.68518e-10
-5.42262e-10
4.25236e-10
-1.01414e-09
5.19814e-10
-9.50897e-10
-3.68177e-11
-4.47241e-10
-1.34316e-10
-6.05392e-10
5.00803e-10
-6.6932e-10
3.7194e-10
5.54099e-10
4.38872e-10
4.52882e-10
9.15194e-11
3.10535e-10
-2.05912e-11
-2.22056e-11
-6.25983e-10
1.58205e-10
-8.27526e-10
8.1538e-10
-1.03076e-10
1.28181e-09
-1.35462e-11
1.35028e-09
2.42065e-10
7.45395e-10
5.82678e-10
1.19412e-10
-4.34103e-10
-3.93423e-10
-2.15788e-10
-3.2139e-10
1.80544e-11
-2.47389e-10
4.1484e-10
-1.5472e-10
2.79814e-10
7.17704e-10
3.99225e-10
1.03294e-11
-4.03752e-10
5.43769e-11
-3.65438e-10
-9.08169e-11
-1.02195e-10
-3.10354e-10
6.4817e-11
-1.83053e-10
5.90403e-10
2.16173e-10
-1.92076e-11
-3.84544e-10
-7.02461e-11
-3.14399e-10
-2.44503e-11
-1.47991e-10
-3.31072e-10
3.71439e-10
-2.82998e-10
5.42329e-10
-6.68257e-11
-1.92092e-10
-1.92452e-10
-5.98624e-10
9.21326e-11
-8.51649e-10
1.05034e-10
-6.79812e-10
1.99603e-10
-2.54869e-10
1.17386e-10
-3.21695e-10
2.19993e-11
-2.14451e-10
-2.62408e-10
3.7654e-10
-3.64282e-10
2.06908e-10
-2.3032e-10
6.56406e-11
-3.93728e-11
-7.35612e-11
-3.61068e-10
-3.3169e-10
1.17239e-10
-2.57458e-10
3.02308e-10
1.06557e-11
-6.12051e-11
4.5838e-10
-3.82084e-10
6.9566e-10
-3.1084e-10
3.34592e-10
-1.8083e-10
2.98069e-10
-4.51042e-10
5.7252e-10
-5.50441e-11
-4.57203e-10
3.83357e-10
-8.20485e-10
1.85725e-10
-1.13209e-10
5.20317e-10
4.12943e-10
-1.14874e-10
7.15959e-10
2.69504e-10
3.73038e-10
-1.14282e-10
-7.15615e-12
-4.40291e-10
-3.79108e-10
2.58744e-10
1.41209e-10
-7.52335e-11
-3.96403e-11
-4.70625e-10
6.64896e-10
-1.23762e-09
6.52714e-10
-1.44422e-09
-2.33689e-10
-9.29495e-10
-2.55983e-10
-7.88287e-10
2.75541e-10
-3.15182e-10
4.48187e-10
4.9225e-10
6.8422e-10
4.16681e-10
1.19239e-10
3.31292e-10
-1.69334e-10
3.259e-11
-9.57621e-10
1.85174e-10
-5.00356e-10
6.92869e-10
-1.54441e-11
9.15618e-10
1.93931e-10
7.65215e-10
4.81696e-10
3.58843e-10
4.38962e-10
-5.98778e-10
2.79699e-11
-5.28326e-10
1.76679e-12
1.07591e-11
-4.83112e-10
6.78811e-10
-4.45713e-10
4.44296e-10
-3.19366e-11
2.51862e-11
-6.30715e-10
-2.05736e-10
-3.22589e-10
-1.18388e-10
-7.65889e-11
-5.86204e-11
6.19043e-10
-1.3832e-10
5.23996e-10
1.11614e-10
-2.24748e-10
-5.19101e-10
-1.7274e-10
-1.49849e-10
-3.25592e-10
7.62629e-11
2.38152e-11
2.69636e-10
4.10262e-10
1.37549e-10
2.3303e-10
-4.75156e-11
-2.86071e-10
6.1164e-11
-2.11013e-10
2.59362e-10
-1.21935e-10
4.56009e-10
7.29894e-11
4.30483e-10
1.63074e-10
-7.82793e-11
4.61247e-10
-3.6435e-10
7.85699e-10
-9.96711e-10
1.35532e-09
-6.91556e-10
1.39651e-09
3.1804e-11
8.14224e-10
7.45355e-10
-2.94619e-10
1.57009e-09
-6.58969e-10
-7.09761e-10
-2.8695e-10
-1.42114e-09
1.98193e-11
-1.28609e-09
-1.03243e-10
-1.07835e-09
5.37619e-10
-6.4727e-10
1.13901e-09
-1.30624e-09
-3.96511e-10
1.09561e-10
-9.02769e-10
5.26077e-10
-6.35945e-10
-3.70067e-10
-9.23982e-11
-5.92787e-12
6.11075e-10
4.35533e-10
-6.95164e-10
7.53661e-10
-6.44099e-10
1.61091e-09
-3.31174e-10
1.12677e-09
1.14072e-10
6.92487e-10
4.28357e-10
4.18155e-10
7.09865e-10
-2.77009e-10
6.44963e-10
-1.28906e-09
1.25783e-09
-9.44039e-10
1.00116e-09
3.70737e-10
1.11356e-09
3.15961e-10
5.86253e-10
1.23717e-09
3.09245e-10
6.65615e-11
-1.35562e-09
-4.79116e-10
-3.98361e-10
-8.33458e-10
7.25078e-10
-4.52379e-10
-6.51181e-11
1.34883e-10
6.49911e-10
4.44128e-10
-1.10138e-09
-2.54241e-10
-1.9515e-09
4.51753e-10
-1.66762e-09
4.41199e-10
-1.38953e-09
-3.4321e-10
-4.46376e-10
-2.9324e-10
-2.24837e-12
-6.72631e-10
4.1839e-10
-8.8488e-10
6.64002e-10
-1.57446e-10
-2.86235e-10
-5.07666e-11
-4.4989e-10
-1.26722e-10
-2.17284e-10
-1.2897e-10
1.58428e-10
2.59962e-10
2.18427e-11
8.00587e-10
3.38834e-11
-2.98275e-10
-5.17325e-11
-3.64274e-10
2.9367e-11
-2.98384e-10
-9.96034e-11
4.52111e-10
-1.92149e-10
7.51069e-10
5.0163e-10
3.30908e-10
1.21886e-10
-1.65314e-10
1.31948e-10
-2.78495e-10
-1.85203e-10
-3.78098e-10
4.05198e-10
-5.97347e-10
8.15255e-10
9.15734e-11
1.38748e-10
7.98392e-10
-3.12806e-10
5.83503e-10
-5.03445e-10
5.43626e-12
-8.81543e-10
6.11335e-11
-6.5848e-10
1.07964e-09
-9.26931e-10
8.37822e-10
1.04021e-09
8.43281e-10
5.78043e-10
2.67517e-10
5.812e-10
-6.14026e-10
-9.02786e-11
-5.68202e-10
5.15655e-10
-1.53286e-09
8.09577e-10
7.46287e-10
5.2172e-10
8.65901e-10
2.98897e-10
8.04023e-10
-3.15129e-10
-1.30372e-10
-4.3783e-10
-4.9763e-10
-1.16561e-09
5.99134e-10
-3.50476e-10
8.94142e-10
5.70893e-10
7.56329e-10
9.41836e-10
4.412e-10
2.21902e-10
-6.59732e-10
-3.19067e-11
-9.11798e-10
4.22687e-10
-8.0507e-10
5.89136e-10
4.04444e-10
3.8516e-10
1.14581e-09
8.2636e-10
-1.38917e-10
-5.20815e-10
-5.58608e-10
-4.92107e-10
-1.2844e-09
-7.92821e-11
-1.16527e-09
2.85317e-10
-5.84729e-10
5.65271e-10
2.41632e-10
-6.33739e-11
-4.57441e-10
-4.18226e-10
-1.37254e-10
-8.16675e-10
3.19166e-10
-6.87454e-10
1.56096e-10
-4.56074e-10
3.33891e-10
-2.14443e-10
-1.86417e-11
-4.38799e-10
1.21445e-10
-2.7734e-10
3.36692e-10
1.03919e-10
1.82864e-10
3.09925e-10
-1.28736e-11
5.29628e-10
-2.27316e-10
-2.48045e-10
-1.90754e-10
-3.06968e-10
-2.18417e-10
3.26366e-11
-2.35685e-10
1.22226e-10
2.20335e-10
1.32799e-10
5.19056e-10
-9.45172e-11
1.0472e-10
-2.95474e-10
2.0516e-10
-3.18858e-10
2.35876e-10
-2.66401e-10
2.07588e-10
2.48623e-10
1.34478e-10
5.92166e-10
3.99607e-11
-1.12716e-10
-1.82758e-10
-5.51636e-10
1.20063e-10
-8.01627e-10
-1.64102e-11
-7.3163e-10
1.78626e-10
-3.98035e-10
2.58571e-10
-3.58074e-10
1.83392e-10
-3.6615e-10
3.48774e-10
-4.53187e-11
3.82017e-10
-4.96535e-11
3.5063e-11
5.2558e-10
-1.10053e-10
4.03687e-10
-4.68127e-10
3.70447e-10
-7.36597e-10
7.04666e-10
-3.79538e-10
5.83949e-10
7.10638e-11
1.70715e-10
9.38813e-10
2.07004e-10
3.67399e-10
-2.61124e-10
-7.36954e-11
-6.62901e-10
-5.44521e-10
9.12878e-11
-9.81493e-10
5.08036e-10
-7.65422e-10
7.22742e-10
-3.35511e-10
-6.25132e-11
-5.96634e-10
7.92178e-11
-7.42119e-10
-1.84307e-11
1.88936e-10
-3.20422e-10
8.10028e-10
-5.9613e-10
9.9845e-10
-5.67964e-10
-9.06792e-11
-1.1646e-09
3.05202e-11
-7.72639e-10
4.64997e-10
-2.4554e-10
4.07401e-10
8.67624e-10
4.85117e-10
9.20734e-10
3.16664e-10
7.77741e-11
-8.47934e-10
-2.7343e-10
-4.99209e-10
-5.18159e-10
-8.11324e-13
-3.44281e-10
6.93747e-10
1.2727e-10
4.49183e-10
1.63431e-11
1.88701e-10
-8.31591e-10
4.16164e-10
-9.15373e-10
4.07059e-10
8.29408e-12
5.40243e-10
5.60562e-10
1.02495e-10
8.86932e-10
-3.03361e-10
5.94557e-10
-1.13495e-09
5.72503e-10
-1.48788e-09
3.76507e-10
2.0429e-10
7.88026e-11
8.58267e-10
-3.23269e-10
1.289e-09
-2.29843e-10
5.01131e-10
-1.36479e-09
7.90052e-11
-1.56688e-09
-1.43687e-10
4.26982e-10
-8.19792e-10
1.53437e-09
-6.27989e-10
1.0972e-09
-2.08771e-10
8.19127e-11
-1.57357e-09
-3.84326e-10
-1.18255e-09
-2.89492e-10
3.32149e-10
5.28664e-10
7.16216e-10
1.00029e-09
6.25575e-10
8.39021e-10
2.4318e-10
-7.34544e-10
-5.11509e-10
-6.71046e-10
-3.51648e-10
1.72288e-10
9.9285e-11
2.65283e-10
8.15173e-10
-9.03124e-11
5.23142e-10
5.3521e-10
-2.11402e-10
-1.41606e-10
-5.2944e-10
2.97995e-10
-2.67313e-10
1.19931e-10
4.43347e-10
-1.66754e-11
4.62938e-11
-1.74299e-11
5.35965e-10
-2.28832e-10
2.36566e-10
-7.66006e-10
1.31572e-10
-1.62319e-10
1.65139e-10
4.0978e-10
1.9765e-10
1.37827e-11
4.52749e-11
6.88339e-10
-1.83557e-10
4.35543e-11
-8.0956e-10
1.19478e-10
-2.38242e-10
4.65933e-10
6.33245e-11
6.32717e-10
-1.53001e-10
4.91211e-10
8.29846e-10
3.07654e-10
-3.44739e-10
-4.64821e-10
5.90282e-12
-5.88884e-10
3.0571e-10
-2.36483e-10
7.11716e-11
8.15374e-11
7.99645e-11
8.21053e-10
3.87619e-10
2.83179e-10
-7.48e-10
-1.02386e-10
-2.03318e-10
-5.37875e-10
1.99006e-10
-4.75699e-10
1.93612e-11
-3.08703e-10
6.54057e-10
7.89158e-11
4.71306e-10
-1.21931e-09
3.57938e-10
-8.99496e-11
-3.27701e-10
8.84644e-10
-6.42901e-10
3.34561e-10
-3.20341e-10
3.31497e-10
-2.41425e-10
1.22182e-12
-1.22053e-09
1.54228e-10
-2.42956e-10
3.50975e-10
6.87898e-10
-9.574e-11
7.81276e-10
-9.84957e-12
2.45606e-10
-2.51274e-10
-3.81849e-10
-8.38679e-10
-4.31032e-10
-1.93772e-10
-3.46204e-11
2.91486e-10
1.65929e-10
5.80727e-10
1.00161e-10
3.11375e-10
-1.51114e-10
2.88109e-10
-1.12679e-09
5.92036e-10
-4.97699e-10
5.11153e-10
3.72369e-10
4.46415e-10
6.45464e-10
4.15234e-12
7.53637e-10
-1.46961e-10
3.58267e-10
-1.48505e-09
3.5829e-10
-4.97723e-10
1.42543e-10
5.88116e-10
-1.59017e-10
9.47024e-10
-3.59245e-10
9.53865e-10
-5.06206e-10
-2.72923e-10
-1.21213e-09
-5.85984e-10
-1.84661e-10
-6.71576e-10
6.73708e-10
-9.47764e-10
1.22321e-09
-5.70922e-10
5.77024e-10
-1.07713e-09
-6.34953e-10
-5.77178e-10
-7.47785e-10
-7.1829e-11
-3.5034e-10
2.76262e-10
-1.28234e-11
8.85697e-10
4.43521e-12
5.59766e-10
-1.07269e-09
-8.40044e-10
2.62866e-10
-2.35848e-09
1.44661e-09
-2.59083e-09
5.08607e-10
-1.47349e-09
-2.31639e-10
-5.52215e-10
-3.61513e-10
-1.62491e-09
-5.35819e-10
7.98685e-10
-7.16981e-10
1.62777e-09
-2.0989e-09
1.89053e-09
-2.65849e-09
3.27948e-10
-1.43483e-09
-1.58518e-09
-3.05973e-09
7.51561e-10
4.71238e-11
2.27484e-09
1.04497e-10
2.31753e-09
1.84783e-09
1.11881e-09
1.52667e-09
3.88493e-10
-8.54855e-10
-2.67124e-09
1.1819e-10
-7.10658e-11
7.15565e-10
-4.92878e-10
2.43219e-09
1.31207e-10
3.03384e-09
9.25019e-10
2.07982e-09
9.9168e-11
-5.91425e-10
5.96436e-10
-6.67501e-10
9.50541e-10
-8.46983e-10
1.45384e-09
-3.72088e-10
1.92831e-09
4.5054e-10
1.28058e-09
7.46898e-10
6.89159e-10
5.52896e-11
-7.22791e-10
3.67598e-10
-1.15929e-09
5.4678e-10
-5.5127e-10
7.7812e-10
2.192e-10
3.98956e-10
1.12606e-09
1.08812e-09
1.1729e-10
-8.40081e-10
4.37245e-10
-1.47925e-09
7.98814e-10
-9.12839e-10
4.99777e-10
5.18237e-10
1.95385e-10
1.43046e-09
1.2835e-09
1.92821e-10
-1.0329e-09
7.93069e-10
-2.07949e-09
4.9666e-10
-6.1643e-10
2.55034e-11
9.89394e-10
-9.39462e-11
1.5499e-09
1.18955e-09
-5.20018e-10
-5.12884e-10
-2.37567e-09
-2.23846e-10
-3.25888e-09
2.66787e-10
-3.14539e-09
8.75903e-10
-1.61793e-09
2.24462e-11
-4.28379e-10
-3.86887e-10
-1.25997e-10
-1.75338e-09
1.14265e-09
-1.71799e-09
2.31391e-10
-1.35143e-09
5.09346e-10
-3.37869e-10
-9.91113e-10
-7.66248e-10
1.11968e-09
-1.24568e-09
2.66095e-09
-3.98622e-10
2.62055e-09
2.71791e-10
2.68479e-09
4.4511e-10
1.37309e-09
3.20582e-10
6.06843e-10
-2.2013e-10
-1.02555e-09
-2.1489e-10
-4.03861e-10
-6.25268e-10
6.82169e-10
-6.773e-10
4.97142e-10
-8.32551e-10
4.75833e-10
-2.25709e-10
-4.00937e-10
-6.24609e-10
-8.88705e-10
8.39069e-11
-1.00083e-09
7.94291e-10
-1.13191e-09
6.28223e-10
-7.01831e-10
4.57567e-11
-9.2754e-10
1.03898e-10
-7.28507e-10
-3.32941e-12
1.91135e-10
-3.3335e-10
1.12431e-09
-4.13808e-10
7.08681e-10
-2.56613e-10
-1.11438e-10
-1.18415e-09
1.63335e-11
-7.4484e-10
3.27673e-10
-1.20204e-10
6.84173e-10
7.67812e-10
7.12364e-10
6.80491e-10
2.26032e-10
3.74894e-10
-9.5812e-10
2.34699e-10
-9.79538e-10
9.18364e-10
-8.0387e-10
7.6998e-10
9.16196e-10
5.12842e-10
9.37629e-10
-7.1002e-11
9.58738e-10
-1.02912e-09
6.80737e-11
-1.04761e-09
4.01197e-12
-7.39808e-10
1.82764e-10
7.37445e-10
5.27324e-10
5.93069e-10
3.94125e-10
1.09194e-09
-6.34997e-10
-1.86004e-11
-1.02901e-09
1.53064e-10
-9.11472e-10
7.65423e-10
1.25085e-10
8.32088e-10
5.26403e-10
9.27242e-10
9.96784e-10
2.92244e-10
3.6013e-10
-1.38914e-09
4.95294e-10
-1.04664e-09
4.00386e-10
2.19993e-10
-2.29032e-10
1.15582e-09
1.64424e-10
6.03327e-10
4.56668e-10
1.5744e-10
-1.54658e-09
-3.25634e-10
-5.63563e-10
-4.8258e-10
3.7694e-10
-6.78436e-10
1.35168e-09
-2.75538e-10
2.0043e-10
1.8113e-10
-3.39205e-10
-1.20738e-09
-1.35514e-09
4.52372e-10
-1.62643e-09
6.48226e-10
-1.71338e-09
1.43863e-09
-1.44885e-09
-6.40937e-11
-1.26772e-09
-1.19975e-09
-7.62817e-12
-1.93457e-09
1.18719e-09
-2.38788e-09
1.10153e-09
-1.36546e-09
4.16215e-10
-7.00771e-10
-7.28785e-10
-1.96849e-09
2.05426e-10
-2.13054e-10
1.1138e-09
2.78823e-10
1.30023e-09
9.15093e-10
9.81214e-10
7.35236e-10
7.3748e-10
-4.85051e-10
-1.23101e-09
6.21447e-10
-8.34502e-10
1.66014e-09
-7.59869e-10
1.95446e-09
6.20772e-10
8.18848e-10
1.87085e-09
1.70777e-10
1.6302e-10
-1.06024e-09
-5.54582e-10
-2.79919e-10
-9.78875e-10
-3.35576e-10
-4.02625e-10
4.45218e-11
1.00136e-09
4.66865e-10
6.99444e-10
4.64934e-10
-3.60794e-10
-6.67618e-10
3.87698e-10
-1.71472e-09
7.11522e-10
-1.85849e-09
1.88293e-10
-5.35961e-11
-1.33803e-09
5.33506e-10
-1.22168e-10
1.72712e-10
3.56767e-10
3.09315e-11
7.64444e-10
3.03845e-10
3.64966e-10
5.8777e-10
-8.40592e-10
-1.32468e-10
-6.64389e-10
-2.9837e-10
-4.91677e-10
7.91535e-10
-7.60603e-10
1.69726e-09
-6.01883e-10
1.50288e-09
7.82155e-10
1.37106e-10
1.2333e-09
-3.17817e-10
1.56554e-10
-8.09494e-10
3.81606e-10
-1.14221e-09
2.65325e-10
-4.85601e-10
4.32566e-10
6.14913e-10
7.64101e-10
9.0177e-10
3.26732e-10
5.93923e-10
-4.82762e-10
-2.45322e-10
-8.96888e-10
-7.18594e-10
-1.23293e-11
-9.86899e-10
8.83219e-10
-4.29406e-10
3.44276e-10
-4.25647e-10
5.90163e-10
-9.08409e-10
5.68428e-10
-1.46531e-09
9.03003e-10
-3.46905e-10
3.58117e-10
1.4281e-09
-8.83595e-10
1.58599e-09
-1.46383e-09
1.1704e-09
-2.37224e-09
-6.19048e-10
-8.46266e-10
-8.6331e-10
-1.02643e-10
-2.74711e-10
8.39505e-10
2.97859e-10
1.01342e-09
5.86422e-10
8.81834e-10
-1.78581e-09
-1.28243e-09
4.36167e-10
-1.82017e-09
4.35095e-10
-6.88158e-10
-2.92506e-10
5.05467e-10
-1.80206e-10
1.27038e-09
1.16925e-10
-5.15438e-10
-2.0879e-10
6.44956e-10
1.19256e-10
1.07049e-10
5.39397e-10
-7.12647e-10
7.44061e-10
-3.8487e-10
3.87273e-10
4.73712e-10
-1.28165e-10
-1.2648e-10
7.71436e-10
-2.36164e-10
2.16733e-10
-3.64445e-10
-5.84367e-10
-7.00862e-10
-4.84527e-11
-2.14831e-10
-1.23191e-11
-3.42996e-10
1.8183e-10
5.89606e-10
-2.54278e-10
6.52841e-10
-4.98595e-10
-3.4005e-10
-1.18945e-09
6.42405e-10
-8.28071e-10
-3.73701e-10
-1.17107e-09
-2.25499e-10
8.15105e-10
-7.05884e-10
1.13323e-09
-5.37196e-10
-5.08739e-10
2.73106e-10
-1.67897e-10
2.13507e-10
-3.14101e-10
-9.5756e-10
-1.87113e-10
1.00222e-09
-3.14002e-10
1.26012e-09
-6.1765e-10
-2.0509e-10
-2.89472e-10
-4.96074e-10
6.96495e-11
-6.73223e-10
-8.8791e-10
5.2649e-10
4.75729e-10
9.35855e-10
8.5075e-10
-2.87728e-10
1.01849e-09
-7.7868e-10
-5.12274e-12
-5.56145e-10
-8.95758e-10
-1.44406e-09
4.11355e-10
6.4374e-11
7.55279e-10
5.06826e-10
6.22459e-10
1.15131e-09
5.83624e-10
3.37126e-11
1.89127e-10
-5.01262e-10
-1.25493e-09
7.59792e-11
-1.16046e-11
1.7363e-10
4.09176e-10
6.3743e-10
6.87513e-10
5.73708e-10
9.74355e-11
3.44319e-10
-2.71873e-10
-9.10609e-10
-3.07256e-10
2.95651e-10
-3.51749e-10
4.53668e-10
-1.07529e-10
4.43293e-10
-9.46467e-11
8.45535e-11
5.95599e-11
-4.26079e-10
-8.51049e-10
-6.03988e-11
3.56051e-10
-5.25549e-11
4.45825e-10
-4.22585e-11
4.32996e-10
1.27893e-10
-8.55976e-11
1.86998e-10
-4.85184e-10
-6.64051e-10
6.75645e-11
2.88486e-10
-2.03983e-10
7.17372e-10
-3.31179e-10
5.60193e-10
-1.48809e-10
-2.67967e-10
2.37174e-11
-6.5771e-10
-6.40333e-10
-2.37231e-10
5.25718e-10
-5.25756e-10
1.0059e-09
-3.21296e-10
3.55734e-10
2.59756e-11
-6.15239e-10
2.42175e-10
-8.73909e-10
-3.98158e-10
-3.58827e-10
8.84546e-10
-2.239e-10
8.7097e-10
2.86159e-10
-1.54325e-10
5.24707e-10
-8.53787e-10
6.39917e-10
-9.89119e-10
2.41758e-10
6.02806e-11
8.24265e-10
3.10369e-11
9.00214e-10
-1.43945e-10
2.06572e-11
-5.01071e-10
-4.9666e-10
-4.39517e-10
-1.05067e-09
-1.97759e-10
8.38493e-10
-1.4227e-11
9.7617e-10
7.62537e-10
4.67603e-10
5.29225e-10
2.51436e-10
-2.80493e-10
-5.13314e-10
-2.85922e-10
-7.11073e-10
4.24286e-10
-4.38513e-10
4.17599e-10
7.69224e-10
6.58559e-11
8.80968e-10
-1.27086e-10
-8.75509e-11
-2.85784e-10
-1.27224e-10
-9.96857e-10
-1.24314e-10
-3.14199e-10
1.50774e-10
4.94135e-10
8.93072e-10
1.38669e-10
4.90961e-10
3.1456e-10
1.82915e-10
1.80822e-10
-8.13943e-10
-2.29533e-10
-8.46665e-11
2.51629e-11
2.39439e-10
8.42194e-10
-6.78362e-10
8.3193e-10
3.24824e-10
5.91949e-10
4.20802e-10
-2.21993e-10
-4.69082e-11
-3.77587e-11
1.99485e-10
-6.95455e-12
-4.62999e-10
-1.58777e-11
-7.50847e-10
6.12672e-10
-4.32364e-10
1.02318e-10
-6.54357e-10
-3.92954e-11
1.53693e-12
-5.56775e-11
9.42768e-12
-3.8696e-10
3.15405e-10
-4.36331e-10
6.62043e-10
-2.11118e-10
-1.22894e-10
-8.65475e-10
-6.12637e-10
6.14174e-10
-1.16681e-09
5.63604e-10
-1.26242e-09
4.11011e-10
-4.63591e-10
-1.36787e-10
1.03647e-10
-6.90133e-10
-7.61828e-10
1.67527e-10
4.46647e-10
3.68187e-10
3.62944e-10
1.63404e-10
6.15796e-10
1.3907e-10