/*--------------------------------*- C++ -*----------------------------------*\
| =========                 |                                                 |
| \\      /  F ield         | OpenFOAM: The Open Source CFD Toolbox           |
|  \\    /   O peration     | Version:  2206                                  |
|   \\  /    A nd           | Website:  www.openfoam.com                      |
|    \\/     M anipulation  |                                                 |
\*---------------------------------------------------------------------------*/
FoamFile
{
    version     2.0;
    format      ascii;
    arch        "LSB;label=32;scalar=64";
    class       volVectorField;
    location    "9";
    object      U;
}
// * * * * * * * * * * * * * * * * * * * * * * * * * * * * * * * * * * * * * //

dimensions      [0 1 -1 0 0 0 0];

internalField   nonuniform List<vector> 
36000
(
(1437.72 0.000526786 -442.488)
(671.984 0.000773775 -26.2811)
(748.23 0.0010407 334.372)
(452.489 0.00489588 -54.7212)
(1027.16 0.00292791 83.8872)
(56.8814 0.00105064 -172.831)
(-933.227 0.000429828 107.411)
(-2326.58 0.000671161 396.339)
(-1211.22 0.0015042 518.61)
(-1740.92 0.00243899 331.541)
(-582.424 0.00375128 164.168)
(-793.948 0.00170925 112.26)
(-1887.14 0.000164753 179.087)
(65.5551 0.000188929 84.7653)
(2535.43 8.54763e-05 146.504)
(2749.65 0.000624847 117.882)
(4185.57 0.000541711 114.808)
(629.373 0.000474896 62.4429)
(-926.748 0.000156879 -71.9848)
(417.401 0.00030605 -241.425)
(785.232 0.000331441 -189.222)
(479.899 0.000324999 -118.515)
(1172.91 0.000276347 24.5347)
(663.065 0.000232633 187.368)
(-110.292 0.000120367 -36.512)
(-96.318 0.000235734 -169.36)
(-1331.65 0.000299666 -245.626)
(-1312.39 0.000312203 -203.05)
(-1079.56 0.000313603 -118.584)
(-441.796 0.000263557 41.2606)
(-71.567 5.83924e-05 39.6114)
(641.315 0.000122872 56.1821)
(491.944 0.000181088 -4.14758)
(-277.074 0.000231253 -67.0618)
(-363.721 0.000262219 -79.4965)
(-671.836 0.0003419 -53.1484)
(-609.864 3.15768e-05 32.245)
(-202.634 7.3334e-05 40.3084)
(566.255 0.000111146 5.87699)
(95.8617 0.000123316 -169.634)
(11.2333 0.0001467 -29.8416)
(-1438.51 0.000356785 -82.0839)
(-681.153 5.35001e-05 23.6254)
(300.123 6.99935e-05 66.4557)
(1711.35 7.15349e-05 41.1807)
(1373.78 0.000122487 -17.9098)
(-316.097 0.000103425 62.3744)
(-2195.1 0.000255456 57.035)
(277.715 0.00018974 -6.81183)
(1822.23 0.000351275 -52.6014)
(2375.43 0.000402245 16.0648)
(850.58 0.000421681 29.8687)
(1099.92 0.000303618 101.891)
(-771.977 0.000324092 89.2438)
(-1398.93 0.000162103 12.8714)
(-1340.51 0.000281188 65.8768)
(-1518.52 0.000339966 196.38)
(-480.272 0.000374717 36.09)
(106.792 0.000381811 14.9801)
(-2473.43 0.000466762 -6.52686)
(-418.064 9.93526e-05 31.7261)
(128.049 0.000205314 141.949)
(1764.91 0.000309381 184.374)
(2568.24 0.000336184 194.849)
(1281.73 0.000362154 197.409)
(-1018.33 0.000489487 22.7597)
(-1472.59 0.000116515 -88.5757)
(-758.788 0.000285188 -278.255)
(726.235 0.000418609 -131.152)
(452.007 0.000447155 -78.5341)
(883.329 0.000480048 157.685)
(1287.44 0.000584692 203.522)
(1173.76 0.000106627 163.268)
(1757.2 0.00020257 -187.349)
(-562.15 0.000240762 -377.927)
(-1549.89 0.000340637 -117)
(-1899.26 0.000454576 -33.3388)
(332.795 0.000657954 194.076)
(1181.98 9.35882e-05 171.62)
(-346.914 0.000175536 44.9903)
(-1719.27 0.00019949 -78.0925)
(-1352.62 0.000280469 -16.9666)
(-820.936 0.000373942 26.0169)
(1088.38 0.000661674 179.153)
(1176.09 6.25757e-05 95.6947)
(851.712 0.000115024 79.6384)
(-109.046 0.00019699 39.8525)
(-644.847 0.000356349 -45.8641)
(-1058 0.000579463 -83.8612)
(808.65 0.000775962 112.431)
(830.171 5.19257e-05 36.7007)
(901.137 0.000109092 94.7239)
(93.2125 0.000247966 138.323)
(-581.42 0.00030202 111.177)
(-469.772 0.000453453 70.5987)
(800.139 0.000739106 67.7391)
(42.4931 9.50325e-05 22.0383)
(-873.151 0.000232178 89.4396)
(-705.338 0.000353147 165.607)
(-670.827 0.000400978 148.095)
(327.752 0.000540297 59.0779)
(621.927 0.000779487 22.8551)
(-131.715 0.000112707 33.1601)
(-513.315 0.000278475 56.6197)
(-755.427 0.000391697 59.878)
(-445.659 0.000391347 94.9858)
(765.059 0.00048578 14.102)
(626.341 0.000828464 -29.0574)
(-479.658 0.000178767 55.5264)
(-722.083 0.000384327 44.1804)
(-343.672 0.000517961 29.5463)
(-328.271 0.000476735 15.202)
(695.192 0.000510333 -2.67077)
(485.643 0.0008603 -40.457)
(-901.507 0.000233006 53.8565)
(-488.918 0.000427322 5.17043)
(270.579 0.000565894 22.155)
(20.439 0.000505855 -19.1049)
(730.074 0.000572792 -9.95816)
(416.937 0.000918785 -9.94325)
(-1162.39 0.000214185 -5.19143)
(-344.363 0.000388734 -47.8728)
(241.772 0.000574222 -51.6953)
(1251.89 0.000731379 -7.39831)
(-33.2773 0.00074004 -40.6162)
(213.608 0.00102031 23.7488)
(-501.129 0.000159 -51.5299)
(178.784 0.000323373 -54.6469)
(70.7849 0.000484509 -7.58399)
(412.458 0.000700876 28.2955)
(450.905 0.000904194 58.5939)
(338.991 0.00112956 27.8016)
(-301.876 0.000155361 -16.35)
(-419.009 0.000382447 16.5294)
(-438.658 0.0005338 98.5571)
(-197.937 0.000638163 140.328)
(348.469 0.000838272 76.8484)
(647.843 0.00118478 29.7285)
(-531.981 0.000195252 30.837)
(-792.279 0.000507481 76.422)
(-793.515 0.000690724 111.71)
(126.414 0.000752416 141.621)
(723.874 0.000859827 77.3911)
(815.116 0.0012274 26.6405)
(-874.068 0.000288357 33.3366)
(-808.621 0.000654314 40.5119)
(-757.449 0.000871341 14.3418)
(413.868 0.000892514 16.624)
(1289 0.000938185 0.691331)
(1055.24 0.00126267 20.4269)
(-898.533 0.00032751 30.4531)
(-707.65 0.0007409 -6.56587)
(-500.132 0.00102852 -105.107)
(492.553 0.00104992 -182.367)
(935.465 0.00109485 -171.963)
(401.69 0.00134991 -46.9919)
(-791.368 0.000334977 24.5192)
(-229.291 0.000822988 -48.0169)
(606.729 0.00120297 -181.645)
(1485.76 0.00125386 -158.251)
(345.245 0.0013105 -164.841)
(-1031.09 0.00144856 -14.7902)
(-731.022 0.000290179 7.3283)
(-93.5144 0.000814292 -28.8926)
(359.034 0.00134719 -160.85)
(373.355 0.00153092 -135.819)
(-155.057 0.00157957 -3.14193)
(-1436.25 0.0016731 18.6078)
(-860.715 0.000394022 20.2087)
(-560.981 0.000499608 6.73006)
(949.89 0.000727962 -94.8868)
(-220.718 0.000887678 -179.08)
(-415.412 0.00111205 -35.3498)
(-1631.85 0.0015305 133.178)
(231.518 0.000723378 3.00793)
(2582.63 0.00107182 -193.762)
(3908.8 0.00123499 -264.206)
(2171.1 0.0012576 -75.2979)
(-1201.23 0.00160305 -172.921)
(232.875 0.00167533 143.859)
(368.358 0.00082015 -21.7905)
(2006.72 0.00137076 -89.9408)
(1477.17 0.00151188 73.9132)
(-1303.84 0.00161327 138.867)
(-2124.59 0.00186923 -54.9591)
(-1538.97 0.00184097 90.9878)
(40.3199 0.000612211 -38.5423)
(-189.121 0.00123067 107.617)
(-116.531 0.00142351 362.797)
(-1011.96 0.00148853 525.628)
(305.009 0.00157562 262.605)
(-1992.27 0.00185472 141.561)
(302.306 0.000808605 -13.0005)
(-892.5 0.00167907 39.6193)
(-855.83 0.00165618 54.0644)
(-415.769 0.00162017 55.5315)
(1690.27 0.00176264 159.647)
(1128.74 0.00201452 104.047)
(-376.325 0.000480023 1.07711)
(-229.696 0.000926493 -67.7817)
(584.196 0.000677367 -58.6925)
(-1023.7 0.00107726 -154.148)
(-1247.84 0.00142411 -281.943)
(740.208 0.00193194 62.5481)
(172.149 0.00036029 16.0032)
(577.413 0.000526749 -52.5912)
(1087.71 0.000818309 20.8886)
(317.686 0.00146237 -115.646)
(27.4393 0.00186304 -151.368)
(-392.62 0.00194452 35.4325)
(163.974 0.000262888 39.6304)
(124.865 0.000582936 23.7399)
(178.085 0.000975557 55.8598)
(238.668 0.00133824 -118.558)
(148.519 0.00206036 -28.3763)
(-1036.02 0.0023157 118.932)
(-849.971 0.000274346 91.6349)
(303.311 0.0007634 48.2657)
(390.612 0.00150491 -43.6481)
(1262.93 0.0018711 -99.8418)
(-468.056 0.00218654 58.4701)
(-1293.62 0.00238509 -13.6814)
(-688.42 0.00058033 -28.4603)
(1371.6 0.000807771 -87.9715)
(1294.71 0.00118667 -128.416)
(234.508 0.00174075 -6.11909)
(239.85 0.00187324 45.3272)
(-668.915 0.00209856 103.224)
(-255.951 0.000756641 25.5899)
(-93.6058 0.00106541 -101.768)
(-258.295 0.00147553 -65.722)
(-1268.16 0.00222301 69.1501)
(-1034.82 0.00248506 -92.9264)
(-939.063 0.00250128 -11.5711)
(739.633 0.000840224 131.719)
(810.001 0.00150668 75.7879)
(717.164 0.0017144 88.9775)
(1338.74 0.00185079 -30.2319)
(-341.244 0.00197351 -64.883)
(-929.879 0.0023113 -90.8355)
(517.572 0.000399871 44.203)
(161.22 0.000600262 43.9609)
(641.546 0.000779484 113.524)
(733.575 0.000921302 241.136)
(321.03 0.000719838 232.392)
(-506.072 0.00159706 -80.8547)
(-25.7484 0.000207505 13.6124)
(-900.612 0.000453176 73.0385)
(-1202.96 0.000490816 162.72)
(9.73717 0.00101483 115.34)
(437.729 0.00152735 68.3612)
(-265.21 0.00235812 -12.7731)
(-540.704 0.000351004 6.21158)
(-505.393 0.000776542 35.2756)
(-199.672 0.000876593 28.8585)
(847.87 0.000999088 -13.8089)
(715.553 0.00155874 -2.9403)
(-9.21047 0.00233198 -16.6848)
(-327.611 0.000377226 -14.7244)
(-565.701 0.000724243 -9.36433)
(-740.486 0.000869202 -98.0377)
(-146.375 0.000841721 9.7062)
(743.157 0.000966881 91.5504)
(-114.144 0.00196831 -47.666)
(-142.416 0.000640781 3.38552)
(-244.073 0.00112506 -79.1785)
(29.0008 0.00135884 -297.871)
(648.698 0.00149515 -219.789)
(444.406 0.00182878 -36.8568)
(-549.46 0.00269049 -16.9544)
(646.901 0.000864216 32.3401)
(1051.18 0.00157685 217.485)
(-182.773 0.00185003 113.359)
(-381.639 0.00226766 92.3378)
(-509.167 0.0027038 62.9492)
(-88.4576 0.00299298 61.628)
(-1251.38 0.000845807 -79.6348)
(-575.692 0.00144675 -174.494)
(540.312 0.00195038 -164.462)
(1310.41 0.00223807 -30.9861)
(837.752 0.00269597 -11.8802)
(263.708 0.00274163 90.5718)
(1016.31 0.000967934 -156.771)
(1935.56 0.00164007 -345.695)
(-246.952 0.00188034 -490.98)
(-2203.36 0.00181516 -143.193)
(-440.906 0.00181766 -447.074)
(569.148 0.00240436 66.1947)
(0.863243 0.000918388 33.0729)
(447.409 0.00139874 131.361)
(2177.62 0.0016638 162.753)
(-2268.46 0.00149259 203.085)
(-3176.18 0.00133695 -60.0316)
(-2934.41 0.00200252 113.155)
(213.929 0.000468029 38.7009)
(1484.81 0.000506377 173.877)
(1031.46 0.000732405 403.262)
(1073.84 0.000862157 308.25)
(1273.28 0.00120052 189.831)
(401.374 0.00217333 147.229)
(-641.821 0.000264384 -3.96154)
(-578.981 0.000631313 81.2904)
(-31.2362 0.00140808 95.6091)
(454.156 0.00232166 20.0577)
(-282.058 0.00251824 57.0766)
(-774.519 0.00274151 51.218)
(-926.487 0.000273212 26.7456)
(-598.895 0.000617789 85.3007)
(-131.295 0.000859949 95.0276)
(1706.43 0.00130752 247.011)
(968.767 0.00212094 89.4315)
(11.2123 0.00292281 28.5126)
(-1077.83 0.000270982 1.09762)
(-493.173 0.000667208 -4.22993)
(-496.842 0.00111222 -37.7886)
(500.456 0.00157258 6.63905)
(1033.66 0.00235891 35.5768)
(-120.284 0.00306572 13.6697)
(-1182.26 0.000342341 19.5507)
(-498.484 0.000759694 53.2938)
(-137.639 0.00116688 50.8816)
(506.868 0.00153954 19.9827)
(1130.2 0.00221381 43.368)
(-95.5126 0.00305986 16.8885)
(-1251.84 0.000345539 9.8232)
(-612.464 0.000765294 33.6929)
(234.746 0.00123116 66.4332)
(1067.85 0.00177042 68.2861)
(1308.55 0.00234183 64.779)
(134.812 0.00312539 33.7727)
(-1334.95 0.0003731 -3.89056)
(-1008.63 0.000778182 6.9381)
(-241.423 0.00114792 67.9015)
(667.979 0.00167425 112.09)
(1240.63 0.00236841 106.699)
(372.101 0.00319712 45.9715)
(-1219.93 0.00047998 -6.75705)
(-1112.33 0.000947585 -5.99224)
(-559.328 0.00119803 30.8076)
(642.835 0.0014621 97.084)
(1765.55 0.00219023 131.618)
(834.989 0.0031854 44.4172)
(-1151 0.000589369 5.94442)
(-1340.54 0.00116357 -7.5773)
(-1028.46 0.00138822 -12.2669)
(-1.91664 0.00140141 -49.8518)
(1767.81 0.00200027 95.961)
(1099.63 0.00312163 41.8075)
(-1337.43 0.000695088 42.6424)
(-1340.17 0.00143579 -23.0789)
(-445.82 0.0018075 -96.1442)
(148.913 0.00183812 -240.236)
(1407.2 0.00224082 -57.0047)
(923.688 0.0031879 -14.8161)
(-1500.89 0.00075799 24.2146)
(-288.019 0.00161698 -80.0507)
(1336.2 0.00232438 -199.915)
(143.003 0.00231615 -307.068)
(501.288 0.00259845 -153.439)
(88.5511 0.00338167 -42.7212)
(-1285.12 0.000607157 -7.96637)
(455.388 0.00138493 -15.2587)
(1707.12 0.00240722 2.54584)
(321.883 0.00287968 -15.048)
(-203.643 0.00300515 -65.05)
(-647.404 0.00359735 -16.6007)
(-1284.31 0.000406974 -13.9282)
(-285.605 0.000955941 19.1642)
(667.566 0.00179547 99.0642)
(1306.3 0.00273698 139.887)
(569.6 0.00323587 20.6292)
(-479.932 0.00374441 -0.524465)
(-1074.96 0.000382762 -14.1056)
(-313.227 0.000896287 -15.5321)
(196.544 0.00161247 -6.11735)
(949.126 0.00256055 30.5223)
(742.967 0.00332742 10.1582)
(-694.966 0.0038251 2.31354)
(-1059.49 0.000409834 3.08591)
(-350.937 0.000895745 18.4531)
(133.814 0.00144355 38.1229)
(791.508 0.00225581 72.4684)
(919.327 0.00315836 48.4379)
(-766.394 0.00389942 25.7707)
(-1113.69 0.000461067 12.6331)
(-503.204 0.000975029 38.7528)
(-25.0953 0.00141894 75.5483)
(692.372 0.00195586 114.863)
(1232.87 0.00278572 98.0748)
(-164.145 0.00376164 37.1675)
(-1261.93 0.000465482 11.0819)
(-799.29 0.00100406 26.3577)
(-175.738 0.00146258 39.7055)
(575.764 0.00186583 28.8108)
(1400.03 0.00260941 56.7348)
(288.192 0.00367878 23.7101)
(-1316.6 0.000495222 5.76572)
(-761.641 0.00108229 4.15954)
(42.2549 0.00161697 -0.557058)
(623.638 0.00212057 -37.4709)
(1125.2 0.00280485 -3.70321)
(227.909 0.00378312 5.84487)
(-1333.22 0.000508391 4.14726)
(-685.147 0.00110864 3.2323)
(112.769 0.0016691 12.5314)
(692.472 0.0022449 -4.1867)
(1040.89 0.00296631 6.09462)
(179.974 0.00389527 5.02898)
(-1396.76 0.000514591 11.661)
(-732.144 0.00110541 18.0143)
(45.1752 0.0016512 41.9512)
(607.052 0.00222504 37.9883)
(1039.22 0.00298975 26.6534)
(200.997 0.00395642 5.84765)
(-1524.41 0.00053468 19.4585)
(-824.341 0.0011302 30.4683)
(70.3202 0.00166759 66.8476)
(723.086 0.00217758 83.9014)
(1295.35 0.00298346 51.4647)
(291.024 0.00400585 7.27099)
(-1643.57 0.000531796 6.05006)
(-983.594 0.00112235 3.02882)
(-55.6569 0.00168234 22.0651)
(902.762 0.00218422 34.8181)
(1698.98 0.00294588 55.8561)
(503.524 0.00402358 13.7471)
(-1557.77 0.000526555 -12.5859)
(-947.013 0.00114242 -33.0757)
(-99.8604 0.00178639 -43.9586)
(633.014 0.00246279 -64.4631)
(1432.75 0.00308346 14.4165)
(571.794 0.00408734 9.09732)
(-1335.5 0.0004987 -19.8238)
(-742.489 0.00111389 -36.2926)
(-20.6332 0.00179481 -40.9983)
(532.336 0.00258597 -32.5256)
(1076.28 0.0032683 5.11536)
(527.412 0.00418114 8.20551)
(-1103.73 0.000501983 -15.5123)
(-691.428 0.00109484 -15.9981)
(-304.402 0.00161854 12.7558)
(338.549 0.00227354 58.6716)
(1131.98 0.00325527 37.3743)
(647.855 0.00427805 5.8)
(-1110.51 0.000616012 14.8138)
(-928.16 0.00128335 27.066)
(-695.295 0.00173661 52.4483)
(30.5233 0.00203947 65.6691)
(1244.65 0.00291306 70.7243)
(836.971 0.00423584 15.3295)
(-1327.67 0.000763753 17.5295)
(-1026.08 0.00156186 -1.06842)
(-437.288 0.0021984 -40.6061)
(537.831 0.00264321 -114.076)
(1426.98 0.00298664 -16.8805)
(1114.35 0.00420575 11.9131)
(-1185.91 0.000801693 -22.3615)
(-522.589 0.00168815 -77.536)
(125.541 0.00256349 -172.322)
(689.572 0.00325146 -251.704)
(519.265 0.00344568 -119.194)
(554.017 0.00429285 -24.6036)
(-806.288 0.000546182 -27.0528)
(46.3533 0.00133555 -58.06)
(370.596 0.00232051 -132.063)
(138.226 0.00332359 -290.402)
(465.691 0.00383011 -180.734)
(-385.602 0.00456723 -46.4597)
(-1118.75 0.000651386 41.6969)
(116.122 0.00161217 73.1636)
(1014.82 0.00262638 -4.47625)
(-698.763 0.00346057 -192.244)
(-660.37 0.00395502 -162.922)
(-2022.16 0.00472829 -53.7045)
(-988.566 0.000836446 8.26859)
(1328.17 0.0019793 57.7592)
(3190.55 0.00317522 226.702)
(2248.31 0.00389743 372.872)
(577.484 0.00440685 223.208)
(-1013.71 0.00500747 40.7507)
(-1001.04 0.000604042 -48.2643)
(-248.536 0.00122253 -38.9274)
(-1462.19 0.00185446 98.2057)
(257.274 0.00225745 279.141)
(1311.04 0.00302812 414.337)
(634.542 0.00461262 182.92)
(-858.568 0.000916702 31.5284)
(-782.823 0.00173413 71.9588)
(-1362.82 0.00213968 19.9335)
(-1368.42 0.00238208 -92.1868)
(1190.37 0.00268187 -24.3716)
(1817.4 0.0042325 77.0147)
(-1755.1 0.00135885 43.3866)
(-1009.75 0.00256437 -65.8475)
(289.599 0.00317036 -282.423)
(141.491 0.00334752 -494.788)
(304.276 0.00359425 -353.445)
(488.847 0.00440879 -51.3309)
(-466.299 0.000883145 1.88615)
(2127 0.00204463 -14.5859)
(1725.67 0.00348438 -39.4135)
(1281.43 0.0042114 -184.341)
(-1117.71 0.00470474 -132.183)
(-1768.69 0.00498933 -49.7626)
(-1418.18 0.00103636 -2.78222)
(-547.457 0.00217541 64.074)
(283.416 0.00283416 166.078)
(1354.97 0.00322499 177.559)
(1120.94 0.00390327 155.253)
(-1053.83 0.0049251 27.3521)
(-755.828 0.00186653 -27.8747)
(502.217 0.00370478 -130.498)
(971.932 0.00445594 -230.253)
(1258.7 0.00457226 -164.674)
(-224.192 0.00490796 -63.3559)
(-912.416 0.00531207 1.63574)
(-487.838 0.0014485 -20.4354)
(557.322 0.00304751 -84.1838)
(954.778 0.00401807 -106.33)
(-154.179 0.00427851 -81.5239)
(-957.185 0.0045685 -45.0817)
(-1304.67 0.00540177 -27.7877)
(-316.262 0.00121739 -11.2667)
(252.9 0.00216792 -155.508)
(748.102 0.00337959 -140.747)
(-8.49631 0.00340918 -123.17)
(-413.274 0.00368739 -94.4909)
(-1898.04 0.00518365 -58.496)
(1917.47 0.00127207 105.943)
(3082.67 0.00199817 22.3141)
(2104.54 0.00242983 11.6679)
(1020.9 0.00232984 85.2375)
(-175.644 0.00284855 77.1656)
(-1537.89 0.00484085 110.66)
(122.299 0.000555135 79.6233)
(-944.32 0.00104273 123.116)
(-388.994 0.00158487 291.471)
(-1151.35 0.00159389 319.033)
(-896.433 0.00225079 171.909)
(-1085.41 0.00464951 46.7969)
(-442.859 0.000843332 70.624)
(-393.89 0.00214525 111.397)
(137.925 0.00287706 113.69)
(419.759 0.00308767 61.7303)
(463.864 0.00357529 -35.6922)
(-347.257 0.00501159 -62.5706)
(-819.985 0.00166276 46.2785)
(138.881 0.00318227 -33.5042)
(699.592 0.0038243 -14.0772)
(195.717 0.00405076 41.6225)
(-367.592 0.00452384 53.357)
(-1187.22 0.00547628 -7.43606)
(-82.829 0.00203324 -52.542)
(902.894 0.0032534 -147.611)
(919.099 0.00356577 -14.9643)
(-9.96465 0.00368579 125.337)
(1881.16 0.00399359 244.574)
(1283.69 0.00530291 98.287)
(504.266 0.00137655 -76.1854)
(-120.132 0.00179272 -162.604)
(-1529.36 0.00237631 -78.2641)
(-2551.5 0.0035095 -67.6301)
(-1024.98 0.00457 -30.6217)
(1052.87 0.00552578 106.962)
(847.466 0.000525994 25.7906)
(407.268 0.000944617 199.842)
(-1300.88 0.00185805 204.369)
(-627.116 0.00227456 253.838)
(216.492 0.00379722 127.642)
(771.875 0.00546379 -9.29598)
(-514.652 0.000627391 48.7777)
(-837.89 0.00143752 185.913)
(-1247.77 0.00219523 -15.3823)
(-961.952 0.00239166 56.8752)
(1685.25 0.00306249 53.199)
(1344.77 0.00478793 -35.2383)
(-579.791 0.000877369 -9.29602)
(-405.909 0.00196575 -10.0839)
(-212.369 0.00306424 -183.438)
(228.652 0.00330843 -309.601)
(1097.73 0.00362848 -120.295)
(170.425 0.00529982 -89.4653)
(-352.824 0.000940717 -16.5283)
(271.27 0.00194117 -63.025)
(303.638 0.00318448 -228.763)
(-140.598 0.00408445 -351.979)
(189.758 0.00458658 -179.928)
(-879.354 0.00585203 -80.7583)
(-687.074 0.00112707 88.8304)
(1002.43 0.00231737 84.8203)
(655.978 0.00358273 182.039)
(-744.401 0.00412349 39.5179)
(-1249.76 0.00469101 -1.85834)
(-1775.63 0.00579557 -30.274)
(-1068.07 0.000987178 21.1658)
(1477.18 0.00206115 75.7286)
(2112.89 0.00312856 341.408)
(2750.61 0.00383907 395.405)
(1835.6 0.00455685 318.483)
(132.055 0.00583081 114.284)
(-1246.02 0.000815702 -46.993)
(-1134.67 0.00165544 -76.2699)
(-1506.67 0.00228271 -21.5803)
(-826.662 0.00309381 62.5317)
(1190.94 0.00417509 88.6753)
(775.303 0.00574099 62.4771)
(-631.652 0.000913346 19.361)
(-488.091 0.00188065 -15.7584)
(195.586 0.00269716 65.7777)
(-476.513 0.0031138 -50.4415)
(778.376 0.0041622 -88.9082)
(467.656 0.00575642 -5.94476)
(-950.117 0.00119954 5.31846)
(-1010.44 0.00252123 -28.5908)
(-739.565 0.00338284 4.28769)
(452.397 0.00386497 -28.716)
(1004.53 0.00456123 -109.067)
(-1.91606 0.00606567 -41.0382)
(-517.975 0.00149986 -27.9536)
(-169.34 0.00293036 -103.005)
(164.831 0.00392091 -222.96)
(852.722 0.00428532 -169.979)
(935.463 0.00495123 -147.736)
(-161.233 0.00628685 -47.7825)
(-481.096 0.00207416 13.7247)
(240.343 0.00379067 -44.3943)
(-304.707 0.00493436 -88.9352)
(-650.978 0.00508473 -70.8809)
(-1056.04 0.00571167 -64.2927)
(-1553.6 0.00655669 -13.8703)
(36.1958 0.00262649 -40.7612)
(1261.45 0.00423493 -86.4001)
(1488.66 0.00441117 -7.74379)
(1267.18 0.00465384 69.8227)
(1208.79 0.00521988 174.455)
(801.659 0.00646411 94.3579)
(914.147 0.00110864 -20.0817)
(566.425 0.00198416 -126.69)
(-1250.42 0.00248748 -6.01943)
(-2029.58 0.00303478 12.6574)
(-1501.4 0.00323094 75.2088)
(711.307 0.00566632 145.011)
(-288.233 0.00110297 14.2214)
(677.811 0.00195437 180.93)
(-656.647 0.00321056 142.255)
(-1129.66 0.00335053 41.925)
(503.559 0.00394538 -25.9733)
(801.057 0.00561283 -4.18735)
(-629.431 0.00231071 16.2573)
(-239.586 0.00425855 -8.32512)
(-73.6878 0.00490666 -318.196)
(-896.495 0.00458479 -410.802)
(-32.6522 0.00498773 -226.011)
(-872.922 0.00638215 -88.9931)
(701.672 0.00256076 52.1674)
(2590.91 0.00457154 121.72)
(2202.06 0.00533339 201.083)
(253.696 0.00544685 58.5224)
(-849.362 0.00573879 -29.2882)
(-1583.37 0.00666347 -54.2872)
(-1139.17 0.00173189 11.0451)
(-392.168 0.00347472 79.9799)
(-60.2369 0.00466401 177.819)
(1617.04 0.00500276 224.435)
(1600.54 0.00589221 225.03)
(-918.378 0.0066783 48.8263)
(-1156.64 0.0026322 -10.0723)
(-321.755 0.00508102 10.2757)
(-33.6358 0.00558431 -82.6978)
(-940.665 0.00608123 -155.614)
(-826.125 0.00643477 -18.0576)
(-1704.92 0.00712461 35.5359)
(-166.523 0.00311532 -26.3759)
(738.541 0.00537383 -38.6877)
(2545.31 0.00619432 63.8366)
(2857.28 0.00668104 -75.9856)
(1253.13 0.00688909 0.263542)
(8.6755 0.00732726 -21.6055)
(-387.572 0.00261269 5.25109)
(-352.421 0.00455018 -62.9544)
(40.9532 0.00565038 107.164)
(-242.6 0.00614373 42.3044)
(-880.384 0.00649388 61.1083)
(-814.328 0.0072404 54.995)
(-464.557 0.00141904 27.2293)
(37.0712 0.00303238 56.9138)
(212.764 0.00432838 92.824)
(-309.376 0.00498188 119.214)
(-396.099 0.00550963 45.9972)
(-981.57 0.00713096 38.476)
(-1760.39 0.00100612 60.7329)
(-2287.9 0.00213118 296.401)
(-1690.19 0.00302545 445.946)
(-983.142 0.00357669 347.25)
(864.235 0.00431274 40.1307)
(-1167.25 0.00660193 -67.4993)
(-145.81 0.00130788 -235.175)
(1428.01 0.00192881 -265.804)
(2871.14 0.00242257 -294.167)
(4448 0.00282942 -301.731)
(4519.5 0.00432065 -372.312)
(-450.175 0.00638016 -237.838)
(467.581 0.00135364 -185.185)
(627.725 0.0024112 -283.912)
(-1346.5 0.0032515 -15.4161)
(-907.039 0.00431696 -78.1716)
(470.865 0.00490207 -59.6887)
(-1794.63 0.00635262 -93.3538)
(-1023.14 0.000709473 38.623)
(-446.862 0.000953351 303.834)
(-984.605 0.00307648 429.131)
(-252.306 0.00573455 138.887)
(-28.0747 0.0065217 79.9525)
(-1366.92 0.00733418 -27.4024)
(-1276.05 0.00119671 65.1411)
(-947.408 0.00223219 196.105)
(1033.75 0.00299179 279.139)
(1136.54 0.00465577 203.817)
(1457.48 0.00590829 247.381)
(33.7551 0.0073691 41.0766)
(-2280.37 0.00142392 -20.0555)
(-1590.15 0.00260044 -154.153)
(345.839 0.00311291 -17.8346)
(309.158 0.0037719 -216.944)
(3037.8 0.00368987 -54.3444)
(1432.33 0.00577731 70.8392)
(-1354.27 0.00128549 -164.788)
(658.359 0.00220616 -399.49)
(2087.55 0.00305123 -382.686)
(24.7586 0.00426838 -419.939)
(-745.814 0.00477727 -221.014)
(138.596 0.00586696 -4.92329)
(402.777 0.00116103 -112.292)
(643.815 0.00214537 -230.658)
(-866.916 0.00282931 -112.535)
(-1523.96 0.00369648 -6.00297)
(-450.11 0.0050408 6.1905)
(-276.292 0.00735046 -72.5259)
(640.827 0.000784808 -22.8043)
(1100.72 0.00128138 -22.0679)
(-165.062 0.0018223 26.8709)
(55.8595 0.00222121 6.61856)
(-289.746 0.00278641 31.4738)
(-254.901 0.0058678 -2.01829)
(118.081 0.000702418 29.7847)
(1237.11 0.00118059 126.283)
(-707.352 0.00303237 148.283)
(-1113.22 0.00435112 27.2556)
(-586.667 0.00532895 -91.5144)
(-76.4269 0.00660254 -5.36641)
(-792.099 0.00107054 62.5491)
(87.354 0.00227115 181.246)
(969.961 0.00491288 49.8304)
(1323.97 0.00681923 -34.8929)
(-178.03 0.00706932 -73.9589)
(-1232.47 0.00752613 -53.8575)
(-755.28 0.00138243 14.6671)
(366.084 0.00280521 110.378)
(1468.31 0.00489511 222.005)
(681.334 0.00609228 209.579)
(609.317 0.00709945 201.816)
(-833.672 0.00803962 22.6115)
(-730.298 0.000902607 61.1932)
(-2289.36 0.00167259 -32.5498)
(1739.9 0.00433898 258.367)
(1126.72 0.00632882 77.7729)
(1253.75 0.00780664 87.2456)
(-724.744 0.0081957 77.7329)
(-974.117 0.000624258 -0.438804)
(-2609.54 0.00138107 -114.949)
(256.574 0.00264034 16.2959)
(1153.28 0.00423206 202.291)
(822.239 0.00600977 200.445)
(-297.703 0.00732129 126.886)
(-716.458 0.000869771 3.9922)
(-925.115 0.00215725 8.78088)
(-1536.45 0.00285765 -52.0057)
(190.753 0.00303781 153.687)
(1548.48 0.00390958 256.008)
(1257.8 0.00584302 99.5157)
(-1167.1 0.00137375 -26.4993)
(-1652.36 0.00272108 -99.5046)
(-762.558 0.00359837 -281.794)
(834.771 0.00295135 -299.621)
(1531.83 0.00380829 -25.3133)
(886.155 0.00621231 -68.3752)
(-148.316 0.00133339 -1.49258)
(376.709 0.00283688 -46.6913)
(646.046 0.00483874 -147.327)
(46.2246 0.00537868 -215.084)
(51.8404 0.00605716 -84.0982)
(-220.726 0.00740158 -68.3098)
(-960.398 0.00158682 9.84161)
(-667.955 0.00291814 -5.31103)
(306.906 0.003999 29.669)
(492.958 0.00515058 62.5085)
(959.821 0.00537982 19.965)
(-214.094 0.00734553 -13.2718)
(-156.653 0.000702783 -27.9088)
(-5.10977 0.00180388 -31.2803)
(43.6316 0.00371642 -55.7724)
(461.989 0.00599079 6.49347)
(550.644 0.00647815 18.7832)
(-309.942 0.00805385 11.8797)
(-499.435 0.00084071 -16.2853)
(-700.723 0.00183498 49.027)
(-771.038 0.00172854 77.2788)
(3.78332 0.00292533 72.8247)
(806.721 0.00587967 -0.357859)
(34.7272 0.00803155 -10.9845)
(-431.743 0.00153 -40.3516)
(-256.136 0.00336045 -31.7902)
(-90.6664 0.00463715 -146.882)
(468.587 0.0053015 -188.261)
(562.641 0.00686063 -142.166)
(-224.227 0.00852256 -28.5187)
(-138.04 0.00161323 -22.3061)
(411.907 0.00313056 -6.2206)
(-176.314 0.0041213 110.342)
(-126.723 0.00521243 65.0585)
(68.9435 0.00672922 16.9546)
(-793.951 0.00813053 24.1606)
(-736.575 0.00182352 16.9716)
(-406.382 0.00328612 0.183059)
(24.3012 0.00412937 202.851)
(1523.87 0.00445093 18.0408)
(1024.97 0.00577477 126.173)
(-365.267 0.00765974 72.2816)
(-1189.44 0.00190812 -4.34166)
(-522.002 0.00334524 -92.1346)
(445.06 0.00460858 -211.771)
(1028.91 0.00552091 -189.702)
(17.1161 0.00558979 -49.119)
(-173.81 0.00754538 -12.8983)
(-744.327 0.00172807 -1.31464)
(558.276 0.00348411 13.0488)
(708.103 0.00527446 -50.4973)
(659.731 0.00644308 -100.843)
(-510.592 0.00718923 -113.99)
(-1685.34 0.00822528 -42.4323)
(-789.08 0.00101633 -15.167)
(231.401 0.00210417 56.0257)
(1637.13 0.00416764 115.189)
(2247.22 0.00664672 93.777)
(698.886 0.00807908 76.9925)
(-950.814 0.00867491 39.3742)
(-1153.21 0.00109568 -25.6802)
(-796.327 0.00163347 -109.357)
(632.532 0.00403723 -1.18592)
(203.118 0.0066167 -51.9317)
(-382.3 0.00807264 20.5092)
(-1114.31 0.00906609 -1.40588)
(-604.723 0.00166966 62.9035)
(50.6919 0.00291459 87.6414)
(546.552 0.00400597 111.288)
(234.17 0.00515698 57.767)
(193.448 0.00652809 30.8107)
(-1601.12 0.0085494 -31.6896)
(-1571.24 0.00190855 81.2099)
(295.042 0.0036749 105.833)
(853.508 0.00432336 20.8288)
(2184.35 0.00482582 20.2064)
(1508.09 0.00604695 -18.58)
(-1005.9 0.00817385 28.1745)
(-2067.86 0.00200346 30.0943)
(326.529 0.00422509 24.8217)
(1486.35 0.00586471 -63.1472)
(1039.81 0.00628919 -153.555)
(-261.365 0.00719188 -89.2896)
(-2453.21 0.00855939 -9.93537)
(-1289.62 0.00242852 2.91759)
(1294.42 0.00520794 -27.4435)
(3055.4 0.00698949 93.2353)
(2697.15 0.00786198 146.632)
(1435.37 0.00824681 182.74)
(-752.794 0.00896681 127.361)
(-1105.42 0.00199167 -20.6936)
(122.186 0.00497163 -20.8208)
(-684.955 0.0066529 -29.225)
(-845.06 0.00739857 92.3082)
(-185.887 0.00871851 128.972)
(-568.989 0.00926679 123.507)
(-859.453 0.000831242 -11.4315)
(-159.639 0.00219262 -28.3017)
(791.804 0.00342686 46.1077)
(81.3901 0.0057534 104.143)
(666.787 0.00848764 -33.5046)
(-303.515 0.00960248 19.11)
(-1064.99 0.00111216 4.01688)
(-1059.61 0.00201513 -38.5538)
(-281.418 0.00316214 0.984616)
(-440.486 0.00492713 116.119)
(124.073 0.00743816 85.9997)
(-864.675 0.00913345 -0.667974)
(-758.618 0.00171775 -4.48827)
(665.659 0.00308088 -106.61)
(1135.15 0.0039006 80.9339)
(310.789 0.00433636 111.167)
(1479.71 0.00516854 178.165)
(378.495 0.00738527 94.2224)
(-858.688 0.00177906 -33.6693)
(-977.879 0.00331166 27.5154)
(-493.346 0.0036416 -17.3049)
(-161.28 0.00411792 4.01378)
(772.262 0.00440903 40.9832)
(577.352 0.00720499 39.8867)
(-685.052 0.0016062 23.6707)
(-719.451 0.00384967 20.0909)
(-495.378 0.00482754 -73.8041)
(-3.71742 0.00506776 -64.5823)
(992.546 0.0056908 -97.5554)
(209.484 0.00815486 -13.2706)
(-1128.17 0.00233572 47.3752)
(197.329 0.00459082 -0.771407)
(861.075 0.00599155 7.72525)
(-273.262 0.00607935 -79.6654)
(362.514 0.00655156 -96.7681)
(-213.605 0.008634 -28.6995)
(-1600.06 0.00198153 -14.6477)
(-324.068 0.00375061 -27.7698)
(1384.7 0.00599781 7.13484)
(1217.64 0.0070837 62.2012)
(520.576 0.00751803 -14.3224)
(-221.203 0.00909633 1.10214)
(-1075.94 0.00130288 -48.7873)
(-110.643 0.00271012 -58.7141)
(411.283 0.00484386 -73.171)
(1031.17 0.00754893 19.5244)
(330.731 0.0084982 21.9155)
(-180.872 0.00953791 8.0708)
(-1065.01 0.00115415 18.7343)
(-509.015 0.00283227 78.7731)
(86.871 0.0042924 98.3379)
(12.9355 0.006054 96.3362)
(125.003 0.00826331 27.4752)
(-334.485 0.00969576 -1.87651)
(-1575.78 0.00167893 40.4587)
(-669.506 0.00377962 41.8268)
(686.895 0.00531636 7.09796)
(1275.91 0.00630914 13.472)
(1507.84 0.00785206 -57.1077)
(-81.933 0.00957603 -23.3365)
(-1583.67 0.00208953 -22.5069)
(-275.744 0.00442747 -97.1759)
(920.443 0.00628884 -153.077)
(1392.79 0.00745409 -159.877)
(1029.09 0.00826984 -125.874)
(-818.494 0.00968402 -35.5643)
(-872.128 0.00238584 -66.0166)
(95.4749 0.00517512 -153.126)
(792.698 0.00714211 -147.942)
(1553.14 0.00851614 -27.7485)
(481.614 0.0090383 11.9919)
(-1484.84 0.00995725 2.98338)
(-1159.57 0.00329496 -74.354)
(-935.171 0.00649856 -342.65)
(-653.835 0.00774954 -437.581)
(-11.8919 0.00890164 -337.181)
(263.598 0.00992092 -188.365)
(-1460.35 0.0104167 -36.8825)
(1663.02 0.00340984 -140.906)
(3582.86 0.00676858 -128.17)
(1018.23 0.00798679 -307.334)
(-837.55 0.00852745 -391.307)
(-1278.68 0.00875439 -277.516)
(-2505.43 0.0101418 -94.2231)
(744.897 0.00333475 -31.2807)
(1420.33 0.00388414 276.812)
(4553.61 0.00516334 525.2)
(2249.98 0.00680182 247.209)
(-1704.24 0.00671539 156.83)
(-3520.5 0.00891592 68.392)
(320.253 0.00196997 -17.6398)