/*--------------------------------*- C++ -*----------------------------------*\
| =========                 |                                                 |
| \\      /  F ield         | OpenFOAM: The Open Source CFD Toolbox           |
|  \\    /   O peration     | Version:  2206                                  |
|   \\  /    A nd           | Website:  www.openfoam.com                      |
|    \\/     M anipulation  |                                                 |
\*---------------------------------------------------------------------------*/
FoamFile
{
    version     2.0;
    format      ascii;
    arch        "LSB;label=32;scalar=64";
    class       volScalarField;
    location    "300";
    object      p;
}
// * * * * * * * * * * * * * * * * * * * * * * * * * * * * * * * * * * * * * //

dimensions      [0 2 -2 0 0 0 0];

internalField   nonuniform List<scalar> 
100000
(
-3.61468e-10
-2.31909e-08
-3.61204e-08
-3.6329e-08
-3.45313e-08
-2.47723e-08
-2.19221e-08
-9.60053e-09
6.75915e-10
1.84484e-08
3.44771e-08
5.0301e-08
7.14608e-08
9.31718e-08
1.20046e-07
1.47059e-07
1.71805e-07
2.03816e-07
2.34223e-07
2.72016e-07
3.07304e-07
3.43233e-07
3.83014e-07
4.25103e-07
4.69994e-07
5.18221e-07
5.67687e-07
6.14043e-07
6.68034e-07
7.20343e-07
7.79672e-07
8.37162e-07
8.94076e-07
9.56525e-07
1.019e-06
1.08708e-06
1.15447e-06
1.22032e-06
1.2925e-06
1.36404e-06
1.44173e-06
1.51825e-06
1.59364e-06
1.67502e-06
1.75603e-06
1.84296e-06
1.9289e-06
2.01355e-06
2.10434e-06
2.19461e-06
2.29093e-06
2.38613e-06
2.48018e-06
2.58022e-06
2.67988e-06
2.78544e-06
2.89006e-06
2.99331e-06
3.10279e-06
3.21162e-06
3.32668e-06
3.44039e-06
3.55321e-06
3.6717e-06
3.7902e-06
3.91413e-06
4.03766e-06
4.15917e-06
4.28771e-06
4.41462e-06
4.54892e-06
4.68048e-06
4.81283e-06
4.94883e-06
5.08725e-06
5.22828e-06
5.37277e-06
5.51829e-06
5.66083e-06
5.8109e-06
5.95928e-06
6.11468e-06
6.26815e-06
6.42111e-06
6.57955e-06
6.73799e-06
6.90206e-06
7.06534e-06
7.22716e-06
7.39525e-06
7.5627e-06
7.7363e-06
7.90868e-06
8.07995e-06
8.25721e-06
8.43405e-06
8.61686e-06
8.79859e-06
8.97912e-06
9.16568e-06
9.35182e-06
9.5439e-06
9.73496e-06
9.92472e-06
1.01207e-05
1.0316e-05
1.05175e-05
1.07176e-05
1.09169e-05
1.11219e-05
1.13268e-05
1.15372e-05
1.17472e-05
1.19551e-05
1.21701e-05
1.23834e-05
1.26042e-05
1.28221e-05
1.30409e-05
1.32633e-05
1.34882e-05
1.37156e-05
1.39466e-05
1.41785e-05
1.44074e-05
1.46439e-05
1.48787e-05
1.51205e-05
1.53604e-05
1.55997e-05
1.58446e-05
1.60894e-05
1.63399e-05
1.65895e-05
1.68378e-05
1.70922e-05
1.73461e-05
1.76061e-05
1.78648e-05
1.81225e-05
1.83861e-05
1.86494e-05
1.89185e-05
1.91867e-05
1.94535e-05
1.97265e-05
1.9999e-05
2.02775e-05
2.05548e-05
2.08311e-05
2.11133e-05
2.13951e-05
2.16828e-05
2.19695e-05
2.22549e-05
2.25466e-05
2.28375e-05
2.31347e-05
2.34305e-05
2.37254e-05
2.4026e-05
2.43266e-05
2.46327e-05
2.49383e-05
2.52419e-05
2.55525e-05
2.58615e-05
2.61779e-05
2.64915e-05
2.68059e-05
2.71239e-05
2.74445e-05
2.77675e-05
2.80941e-05
2.84216e-05
2.87462e-05
2.90783e-05
2.94088e-05
2.97462e-05
3.00817e-05
3.04167e-05
3.07572e-05
3.10977e-05
3.14438e-05
3.17891e-05
3.21329e-05
3.2483e-05
3.28325e-05
3.31881e-05
3.35425e-05
3.38958e-05
3.4255e-05
3.46139e-05
3.49787e-05
3.53424e-05
3.5705e-05
3.60736e-05
3.64417e-05
3.68158e-05
3.71888e-05
3.75606e-05
3.79385e-05
3.83158e-05
3.86993e-05
3.90815e-05
3.94628e-05
3.98497e-05
4.02366e-05
4.0629e-05
4.10209e-05
4.14109e-05
4.18078e-05
4.22032e-05
4.26059e-05
4.30058e-05
4.34066e-05
4.3811e-05
4.42178e-05
4.46272e-05
4.50401e-05
4.5454e-05
4.58649e-05
4.62834e-05
4.67001e-05
4.71239e-05
4.75457e-05
4.79671e-05
4.83939e-05
4.88207e-05
4.92531e-05
4.96847e-05
5.01149e-05
5.05514e-05
5.09872e-05
5.14291e-05
5.18698e-05
5.23095e-05
5.2755e-05
5.32002e-05
5.36514e-05
5.41014e-05
5.45503e-05
5.50052e-05
5.54596e-05
5.59201e-05
5.63794e-05
5.68376e-05
5.73017e-05
5.77655e-05
5.82352e-05
5.87039e-05
5.91712e-05
5.96448e-05
6.01177e-05
6.05968e-05
6.10746e-05
6.15515e-05
6.2034e-05
6.25165e-05
6.30045e-05
6.34921e-05
6.39776e-05
6.44702e-05
6.49611e-05
6.54595e-05
6.5955e-05
6.64514e-05
6.69513e-05
6.74538e-05
6.79588e-05
6.84673e-05
6.89768e-05
6.94833e-05
6.99974e-05
7.05098e-05
7.10291e-05
7.15466e-05
7.20635e-05
7.25859e-05
7.31083e-05
7.36364e-05
7.41636e-05
7.46894e-05
7.52214e-05
7.57528e-05
7.62904e-05
7.68267e-05
7.73619e-05
7.79031e-05
7.84439e-05
7.89907e-05
7.95363e-05
8.00808e-05
8.06313e-05
8.11814e-05
8.17374e-05
8.22924e-05
8.28461e-05
8.34059e-05
8.39652e-05
8.45306e-05
8.50947e-05
8.56579e-05
8.62268e-05
8.67956e-05
8.73699e-05
8.79438e-05
8.85157e-05
8.90946e-05
8.96718e-05
9.02565e-05
9.08383e-05
9.1421e-05
9.20073e-05
9.25961e-05
9.31874e-05
9.37823e-05
9.4378e-05
9.49709e-05
9.55713e-05
9.617e-05
9.67757e-05
9.73794e-05
9.79827e-05
9.85914e-05
9.92002e-05
9.98145e-05
0.000100428
0.00010104
0.000101659
0.000102276
0.0001029
0.000103523
0.000104144
0.000104772
0.000105399
0.000106032
0.000106664
0.000107295
0.000107932
0.000108568
0.00010921
0.000109852
0.000110492
0.000111138
0.000111783
0.000112435
0.000113086
0.000113735
0.00011439
0.000115045
0.000115706
0.000116366
0.000117025
0.000117689
0.000118354
0.000119024
0.000119693
0.000120361
0.000121035
0.000121708
0.000122388
0.000123066
0.000123744
0.000124426
0.00012511
0.000125797
0.000126487
0.000127179
0.000127867
0.000128563
0.000129258
0.000129959
0.000130658
0.000131357
0.000132061
0.000132766
0.000133476
0.000134185
0.000134893
0.000135607
0.00013632
0.000137039
0.000137758
0.000138475
0.000139198
0.000139921
0.000140649
0.000141377
0.000142103
0.000142836
0.000143568
0.000144306
0.000145042
0.000145778
0.00014652
0.000147261
0.000148008
0.000148754
0.000149499
0.00015025
0.000151001
0.000151757
0.000152513
0.000153267
0.000154028
0.000154787
0.000155553
0.000156317
0.000157082
0.00015785
0.000158621
0.000159394
0.000160171
0.000160948
0.000161723
0.000162505
0.000163286
0.000164074
0.000164859
0.000165644
0.000166435
0.000167226
0.000168022
0.000168817
0.000169611
0.000170412
0.000171211
0.000172017
0.000172822
0.000173625
0.000174435
0.000175244
0.000176059
0.000176872
0.000177685
0.000178504
0.000179322
0.000180146
0.00018097
0.000181792
0.00018262
0.000183447
0.000184281
0.000185113
0.000185944
0.000186782
0.000187619
0.000188462
0.000189303
0.000190144
0.00019099
0.000191837
0.000192688
0.00019354
0.000194389
0.000195246
0.0001961
0.000196962
0.000197822
0.000198682
0.000199546
0.000200412
0.000201281
0.000202153
0.000203027
0.000203897
0.000204775
0.000205651
0.000206534
0.000207416
0.000208296
0.000209183
0.000210069
0.000210961
0.000211852
0.000212741
0.000213637
0.000214532
0.000215434
0.000216334
0.000217233
0.000218138
0.000219043
0.000219953
0.000220863
0.000221771
0.000222685
0.000223599
0.000224519
0.000225438
0.000226355
0.000227279
0.000228202
0.000229131
0.000230059
0.000230986
0.000231919
0.000232852
0.00023379
0.000234728
0.000235663
0.000236606
0.000237547
0.000238495
0.000239441
0.000240388
0.000241338
0.00024229
0.000243246
0.000244204
0.000245164
0.000246121
0.000247085
0.000248047
0.000249017
0.000249984
0.000250951
0.000251924
0.000252897
0.000253875
0.000254852
0.000255828
0.00025681
0.000257792
0.000258779
0.000259766
0.000260751
0.000261743
0.000262734
0.00026373
0.000264726
0.000265721
0.000266721
0.000267722
0.000268728
0.000269733
0.000270737
0.000271747
0.000272756
0.000273772
0.000274786
0.000275799
0.000276818
0.000277837
0.000278862
0.000279885
0.000280908
0.000281936
0.000282965
0.000283998
0.000285032
0.000286063
0.000287101
0.000288138
0.000289182
0.000290223
0.000291265
0.000292311
0.000293359
0.00029441
0.000295464
0.000296519
0.000297572
0.000298632
0.00029969
0.000300755
0.000301818
0.000302881
0.000303949
0.000305017
0.000306091
0.000307164
0.000308235
0.000309313
0.00031039
0.000311473
0.000312555
0.000313636
0.000314723
0.00031581
0.000316902
0.000317994
0.000319084
0.00032018
0.000321276
0.000322378
0.000323478
0.000324578
0.000325683
0.000326788
0.0003279
0.000329009
0.000330118
0.000331233
0.000332347
0.000333467
0.000334587
0.000335705
0.000336829
0.000337952
0.000339083
0.00034021
0.000341339
0.000342471
0.000343605
0.000344742
0.000345883
0.000347024
0.000348163
0.000349309
0.000350453
0.000351605
0.000352754
0.000353903
0.000355058
0.000356212
0.000357372
0.000358532
0.000359689
0.000360854
0.000362017
0.000363187
0.000364355
0.000365522
0.000366695
0.000367868
0.000369047
0.000370225
0.000371401
0.000372584
0.000373766
0.000374954
0.000376141
0.000377327
0.000378519
0.00037971
0.000380907
0.000382104
0.000383299
0.0003845
0.0003857
0.000386907
0.000388113
0.000389317
0.000390527
0.000391738
0.000392953
0.000394168
0.000395382
0.000396602
0.00039782
0.000399046
0.000400269
0.000401493
0.000402721
0.000403951
0.000405184
0.00040642
0.000407657
0.000408891
0.000410133
0.000411373
0.00041262
0.000413865
0.00041511
0.00041636
0.00041761
0.000418865
0.00042012
0.000421374
0.000422633
0.000423892
0.000425158
0.000426422
0.000427684
0.000428953
0.000430222
0.000431496
0.000432769
0.000434042
0.00043532
0.000436597
0.000437881
0.000439164
0.000440445
0.000441732
0.000443019
0.000444312
0.000445604
0.000446895
0.000448191
0.000449488
0.00045079
0.000452091
0.000453391
0.000454697
0.000456002
0.000457315
0.000458624
0.000459934
0.000461248
0.000462565
0.000463884
0.000465206
0.00046653
0.00046785
0.000469178
0.000470504
0.000471838
0.000473169
0.0004745
0.000475836
0.000477173
0.000478515
0.000479856
0.000481196
0.000482542
0.000483887
0.000485238
0.000486589
0.000487938
0.000489293
0.000490648
0.000492009
0.000493368
0.000494727
0.000496091
0.000497455
0.000498825
0.000500194
0.000501562
0.000502935
0.000504309
0.000505688
0.000507066
0.000508443
0.000509826
0.000511209
0.000512597
0.000513984
0.000515371
0.000516763
0.000518155
0.000519553
0.00052095
0.000522345
0.000523747
0.000525147
0.000526555
0.00052796
0.000529366
0.000530776
0.000532188
0.000533602
0.00053502
0.000536439
0.000537856
0.000539279
0.000540701
0.00054213
0.000543557
0.000544983
0.000546415
0.000547847
0.000549285
0.000550722
0.000552157
0.000553599
0.00055504
0.000556487
0.000557932
0.000559377
0.000560828
0.000562278
0.000563735
0.00056519
0.000566644
0.000568104
0.000569563
0.000571029
0.000572494
0.000573957
0.000575426
0.000576895
0.00057837
0.000579844
0.000581316
0.000582795
0.000584273
0.000585757
0.00058724
0.000588722
0.00059021
0.000591697
0.000593191
0.000594683
0.000596175
0.000597671
0.000599169
0.00060067
0.000602174
0.000603679
0.000605182
0.000606692
0.0006082
0.000609715
0.000611228
0.000612741
0.00061426
0.000615778
0.000617302
0.000618825
0.000620346
0.000621874
0.000623402
0.000624935
0.000626467
0.000627998
0.000629535
0.000631072
0.000632615
0.000634156
0.000635696
0.000637243
0.000638789
0.000640341
0.000641891
0.000643441
0.000644997
0.000646552
0.000648113
0.000649673
0.000651232
0.000652797
0.000654361
0.000655932
0.000657501
0.000659069
0.000660643
0.000662217
0.000663797
0.000665376
0.000666953
0.000668537
0.000670119
0.000671709
0.000673296
0.000674884
0.000676475
0.000678069
0.000679665
0.000681265
0.000682866
0.000684464
0.00068607
0.000687674
0.000689284
0.000690893
0.000692502
0.000694116
0.000695729
0.000697349
0.000698968
0.000700585
0.000702208
0.000703831
0.00070546
0.000707088
0.000708715
0.000710347
0.000711979
0.000713618
0.000715255
0.000716891
0.000718533
0.000720174
0.000721822
0.000723468
0.000725113
0.000726764
0.000728415
0.000730072
0.000731727
0.000733382
0.000735042
0.000736703
0.000738369
0.000740034
0.000741697
0.000743367
0.000745036
0.000746712
0.000748386
0.00075006
0.000751737
0.000753418
0.0007551
0.000756787
0.000758474
0.000760158
0.00076185
0.00076354
0.000765237
0.000766932
0.000768627
0.000770327
0.000772027
0.000773733
0.000775438
0.000777142
0.000778852
0.000780561
0.000782276
0.00078399
0.000785703
0.000787422
0.000789141
0.000790865
0.000792589
0.000794311
0.000796039
0.000797767
0.000799501
0.000801233
0.000802965
0.000804702
0.000806439
0.000808182
0.000809924
0.000811665
0.000813412
0.000815158
0.000816911
0.000818662
0.000820412
0.000822168
0.000823924
0.000825685
0.000827446
0.000829205
0.000830971
0.000832735
0.000834507
0.000836276
0.000838046
0.000839819
0.000841595
0.000843373
0.000845155
0.000846938
0.000848718
0.000850505
0.000852291
0.000854084
0.000855874
0.000857665
0.00085946
0.000861256
0.000863057
0.000864858
0.000866657
0.000868463
0.000870267
0.000872078
0.000873888
0.000875696
0.000877511
0.000879325
0.000881145
0.000882964
0.000884782
0.000886606
0.000888429
0.000890259
0.000892087
0.000893914
0.000895747
0.00089758
0.000899419
0.000901256
0.000903093
0.000904935
0.000906777
0.000908625
0.000910472
0.000912317
0.000914169
0.00091602
0.000917878
0.000919733
0.000921589
0.000923449
0.000925311
0.000927175
0.000929044
0.000930913
0.000932779
0.000934653
0.000936525
0.000938404
0.000940281
0.000942157
0.00094404
0.000945922
0.000947809
0.000949696
0.000951582
0.000953473
0.000955364
0.000957262
0.000959158
0.000961052
0.000962953
0.000964854
0.00096676
0.000968665
0.00097057
0.00097248
0.000974389
0.000976305
0.00097822
0.000980133
0.000982053
0.000983972
0.000985897
0.00098782
0.000989743
0.000991672
0.0009936
0.000995534
0.000997467
0.0009994
0.00100134
0.00100328
0.00100522
0.00100716
0.0010091
0.00101105
0.001013
0.00101495
0.0010169
0.00101885
0.00102081
0.00102276
0.00102473
0.00102669
0.00102865
0.00103062
0.00103258
0.00103455
0.00103653
0.0010385
0.00104047
0.00104245
0.00104443
0.00104641
0.00104839
0.00105037
0.00105236
0.00105435
0.00105634
0.00105833
0.00106032
0.00106232
0.00106432
0.00106632
0.00106832
0.00107032
0.00107232
0.00107433
0.00107634
0.00107835
0.00108036
0.00108237
0.00108439
0.00108641
0.00108843
0.00109045
0.00109247
0.0010945
0.00109653
0.00109855
0.00110058
0.00110262
0.00110465
0.00110669
0.00110872
0.00111076
0.0011128
0.00111485
0.0011169
0.00111895
0.001121
0.00112304
0.0011251
0.00112715
0.00112921
0.00113127
0.00113333
0.0011354
0.00113746
0.00113953
0.0011416
0.00114367
0.00114574
0.00114781
0.00114989
0.00115197
0.00115405
0.00115613
0.00115821
0.0011603
0.00116239
0.00116447
0.00116656
0.00116866
0.00117075
0.00117285
0.00117495
0.00117705
0.00117915
0.00118125
0.00118336
0.00118547
0.00118758
0.00118969
0.0011918
0.00119392
0.00119603
0.00119815
0.00120027
0.0012024
0.00120452
0.00120664
0.00120877
0.0012109
0.00121304
0.00121517
0.0012173
0.00121944
0.00122158
0.00122372
0.00122587
0.00122801
0.00123016
0.00123231
0.00123446
0.00123661
0.00123877
0.00124092
0.00124308
0.00124524
0.00124741
0.00124957
0.00125174
0.0012539
0.00125607
0.00125825
0.00126042
0.00126259
0.00126477
0.00126695
0.00126913
0.00127132
0.0012735
0.00127569
0.00127787
0.00128007
0.00128226
0.00128445
0.00128665
0.00128884
0.00129105
0.00129325
0.00129545
0.00129765
0.00129986
0.00130207
0.00130428
0.00130649
0.00130871
0.00131092
0.00131314
0.00131536
0.00131758
0.0013198
0.00132203
0.00132426
0.00132649
0.00132872
0.00133095
0.00133319
0.00133543
0.00133767
0.00133991
0.00134215
0.0013444
0.00134664
0.00134889
0.00135115
0.00135339
0.00135565
0.0013579
0.00136017
0.00136243
0.00136468
0.00136695
0.00136921
0.00137148
0.00137375
0.00137602
0.00137829
0.00138057
0.00138285
0.00138513
0.0013874
0.00138969
0.00139197
0.00139426
0.00139655
0.00139883
0.00140112
0.00140342
0.00140571
0.00140801
0.00141031
0.00141261
0.00141491
0.00141722
0.00141952
0.00142183
0.00142414
0.00142645
0.00142877
0.00143108
0.0014334
0.00143572
0.00143804
0.00144036
0.00144269
0.00144502
0.00144734
0.00144968
0.00145201
0.00145435
0.00145668
0.00145902
0.00146136
0.0014637
0.00146605
0.0014684
0.00147074
0.00147309
0.00147544
0.0014778
0.00148015
0.00148251
0.00148487
0.00148723
0.00148959
0.00149196
0.00149432
0.00149669
0.00149906
0.00150144
0.00150381
0.00150618
0.00150856
0.00151094
0.00151332
0.00151571
0.00151809
0.00152048
0.00152287
0.00152526
0.00152765
0.00153004
0.00153244
0.00153484
0.00153724
0.00153964
0.00154204
0.00154445
0.00154686
0.00154927
0.00155168
0.0015541
0.00155651
0.00155893
0.00156135
0.00156377
0.00156619
0.00156861
0.00157104
0.00157347
0.0015759
0.00157834
0.00158077
0.00158321
0.00158564
0.00158808
0.00159053
0.00159297
0.00159541
0.00159786
0.00160031
0.00160276
0.00160521
0.00160767
0.00161012
0.00161259
0.00161505
0.0016175
0.00161997
0.00162243
0.00162491
0.00162737
0.00162984
0.00163232
0.00163479
0.00163727
0.00163975
0.00164223
0.00164471
0.0016472
0.00164968
0.00165217
0.00165466
0.00165715
0.00165964
0.00166214
0.00166464
0.00166714
0.00166964
0.00167214
0.00167465
0.00167716
0.00167967
0.00168218
0.00168469
0.0016872
0.00168972
0.00169224
0.00169476
0.00169728
0.00169981
0.00170234
0.00170486
0.00170739
0.00170992
0.00171246
0.00171499
0.00171753
0.00172007
0.00172261
0.00172515
0.0017277
0.00173025
0.00173279
0.00173534
0.00173789
0.00174045
0.00174301
0.00174556
0.00174812
0.00175068
0.00175325
0.00175581
0.00175838
0.00176095
0.00176352
0.00176609
0.00176867
0.00177124
0.00177382
0.0017764
0.00177898
0.00178157
0.00178415
0.00178674
0.00178933
0.00179192
0.00179452
0.00179711
0.00179971
0.00180231
0.00180491
0.00180751
0.00181012
0.00181272
0.00181533
0.00181794
0.00182056
0.00182317
0.00182579
0.0018284
0.00183102
0.00183365
0.00183627
0.00183889
0.00184152
0.00184415
0.00184678
0.00184942
0.00185205
0.00185469
0.00185732
0.00185997
0.00186261
0.00186525
0.0018679
0.00187054
0.0018732
0.00187585
0.0018785
0.00188116
0.00188381
0.00188647
0.00188913
0.00189179
0.00189446
0.00189712
0.00189979
0.00190247
0.00190513
0.00190781
0.00191048
0.00191316
0.00191584
0.00191852
0.0019212
0.00192389
0.00192658
0.00192927
0.00193196
0.00193465
0.00193735
0.00194004
0.00194275
0.00194545
0.00194815
0.00195085
0.00195356
0.00195627
0.00195898
0.00196169
0.0019644
0.00196711
0.00196983
0.00197255
0.00197527
0.001978
0.00198072
0.00198345
0.00198618
0.00198891
0.00199164
0.00199437
0.00199711
0.00199985
0.00200258
0.00200533
0.00200807
0.00201082
0.00201356
0.00201631
0.00201906
0.00202181
0.00202457
0.00202733
0.00203008
0.00203284
0.0020356
0.00203837
0.00204114
0.0020439
0.00204667
0.00204944
0.00205222
0.00205499
0.00205777
0.00206055
0.00206333
0.00206611
0.0020689
0.00207169
0.00207448
0.00207727
0.00208006
0.00208286
0.00208565
0.00208845
0.00209125
0.00209405
0.00209686
0.00209966
0.00210247
0.00210528
0.00210809
0.0021109
0.00211372
0.00211653
0.00211935
0.00212217
0.00212499
0.00212782
0.00213064
0.00213347
0.0021363
0.00213913
0.00214197
0.0021448
0.00214764
0.00215047
0.00215332
0.00215616
0.002159
0.00216185
0.0021647
0.00216755
0.0021704
0.00217325
0.00217611
0.00217897
0.00218183
0.00218469
0.00218755
0.00219041
0.00219328
0.00219615
0.00219902
0.0022019
0.00220477
0.00220765
0.00221053
0.00221341
0.00221629
0.00221917
0.00222206
0.00222495
0.00222784
0.00223073
0.00223362
0.00223652
0.00223942
0.00224232
0.00224522
0.00224812
0.00225103
0.00225393
0.00225684
0.00225975
0.00226266
0.00226558
0.00226849
0.00227141
0.00227433
0.00227725
0.00228018
0.0022831
0.00228603
0.00228896
0.00229189
0.00229482
0.00229775
0.00230069
0.00230363
0.00230657
0.00230951
0.00231246
0.0023154
0.00231835
0.0023213
0.00232425
0.0023272
0.00233016
0.00233312
0.00233607
0.00233903
0.002342
0.00234496
0.00234793
0.0023509
0.00235387
0.00235684
0.00235981
0.00236279
0.00236577
0.00236875
0.00237173
0.00237471
0.0023777
0.00238069
0.00238368
0.00238667
0.00238966
0.00239266
0.00239565
0.00239865
0.00240165
0.00240465
0.00240766
0.00241067
0.00241367
0.00241668
0.00241969
0.00242271
0.00242572
0.00242874
0.00243176
0.00243478
0.0024378
0.00244083
0.00244385
0.00244688
0.00244991
0.00245294
0.00245598
0.00245901
0.00246205
0.00246509
0.00246813
0.00247117
0.00247422
0.00247726
0.00248031
0.00248337
0.00248642
0.00248948
0.00249253
0.00249559
0.00249865
0.00250172
0.00250478
0.00250784
0.00251091
0.00251398
0.00251706
0.00252013
0.0025232
0.00252628
0.00252936
0.00253244
0.00253553
0.00253861
0.0025417
0.00254478
0.00254788
0.00255097
0.00255406
0.00255716
0.00256025
0.00256336
0.00256646
0.00256956
0.00257267
0.00257577
0.00257888
0.00258199
0.0025851
0.00258822
0.00259133
0.00259446
0.00259758
0.0026007
0.00260382
0.00260694
0.00261008
0.0026132
0.00261633
0.00261947
0.0026226
0.00262574
0.00262888
0.00263202
0.00263516
0.0026383
0.00264145
0.0026446
0.00264775
0.0026509
0.00265406
0.00265721
0.00266038
0.00266354
0.00266669
0.00266986
0.00267302
0.00267619
0.00267936
0.00268253
0.00268571
0.00268888
0.00269206
0.00269524
0.00269842
0.0027016
0.00270478
0.00270797
0.00271116
0.00271435
0.00271754
0.00272073
0.00272393
0.00272713
0.00273032
0.00273352
0.00273673
0.00273993
0.00274314
0.00274634
0.00274956
0.00275277
0.00275598
0.0027592
0.00276241
0.00276563
0.00276885
0.00277208
0.00277531
0.00277853
0.00278176
0.00278499
0.00278822
0.00279146
0.0027947
0.00279793
0.00280118
0.00280442
0.00280767
0.00281091
0.00281416
0.00281741
0.00282066
0.00282392
0.00282717
0.00283043
0.00283369
0.00283695
0.00284021
0.00284348
0.00284674
0.00285001
0.00285328
0.00285655
0.00285983
0.0028631
0.00286638
0.00286966
0.00287294
0.00287623
0.00287951
0.0028828
0.00288609
0.00288938
0.00289267
0.00289596
0.00289926
0.00290256
0.00290586
0.00290916
0.00291247
0.00291577
0.00291908
0.00292239
0.0029257
0.00292901
0.00293233
0.00293564
0.00293897
0.00294229
0.00294561
0.00294893
0.00295226
0.00295559
0.00295892
0.00296225
0.00296558
0.00296892
0.00297226
0.0029756
0.00297894
0.00298228
0.00298563
0.00298898
0.00299233
0.00299568
0.00299903
0.00300239
0.00300574
0.0030091
0.00301247
0.00301582
0.00301919
0.00302255
0.00302593
0.0030293
0.00303266
0.00303604
0.00303941
0.00304279
0.00304617
0.00304955
0.00305293
0.00305632
0.00305971
0.0030631
0.00306648
0.00306988
0.00307327
0.00307667
0.00308007
0.00308346
0.00308686
0.00309027
0.00309367
0.00309708
0.00310049
0.0031039
0.00310731
0.00311073
0.00311414
0.00311756
0.00312098
0.00312441
0.00312783
0.00313126
0.00313469
0.00313811
0.00314155
0.00314498
0.00314842
0.00315186
0.00315529
0.00315873
0.00316218
0.00316562
0.00316907
0.00317252
0.00317597
0.00317942
0.00318288
0.00318633
0.00318979
0.00319325
0.00319671
0.00320018
0.00320364
0.00320711
0.00321058
0.00321405
0.00321752
0.003221
0.00322447
0.00322795
0.00323143
0.00323491
0.0032384
0.00324188
0.00324537
0.00324886
0.00325235
0.00325585
0.00325934
0.00326284
0.00326633
0.00326984
0.00327334
0.00327684
0.00328035
0.00328386
0.00328737
0.00329088
0.0032944
0.00329791
0.00330143
0.00330495
0.00330847
0.003312
0.00331552
0.00331905
0.00332258
0.00332611
0.00332964
0.00333318
0.00333671
0.00334025
0.00334379
0.00334734
0.00335088
0.00335443
0.00335797
0.00336152
0.00336508
0.00336863
0.00337218
0.00337574
0.0033793
0.00338286
0.00338642
0.00338999
0.00339355
0.00339713
0.0034007
0.00340426
0.00340784
0.00341141
0.00341499
0.00341857
0.00342215
0.00342574
0.00342932
0.00343291
0.0034365
0.00344009
0.00344368
0.00344728
0.00345087
0.00345447
0.00345808
0.00346167
0.00346528
0.00346889
0.0034725
0.00347611
0.00347972
0.00348333
0.00348695
0.00349057
0.00349419
0.0034978
0.00350143
0.00350505
0.00350868
0.00351231
0.00351594
0.00351957
0.0035232
0.00352684
0.00353048
0.00353412
0.00353776
0.0035414
0.00354505
0.0035487
0.00355235
0.003556
0.00355965
0.00356331
0.00356696
0.00357062
0.00357428
0.00357794
0.00358161
0.00358527
0.00358894
0.00359261
0.00359628
0.00359996
0.00360363
0.00360731
0.00361099
0.00361466
0.00361835
0.00362203
0.00362572
0.00362941
0.0036331
0.00363679
0.00364049
0.00364418
0.00364788
0.00365158
0.00365528
0.00365899
0.00366269
0.0036664
0.00367011
0.00367382
0.00367753
0.00368125
0.00368496
0.00368868
0.0036924
0.00369613
0.00369985
0.00370358
0.00370731
0.00371103
0.00371477
0.0037185
0.00372223
0.00372597
0.00372971
0.00373345
0.0037372
0.00374094
0.00374469
0.00374843
0.00375219
0.00375594
0.00375969
0.00376345
0.0037672
0.00377097
0.00377473
0.00377849
0.00378226
0.00378602
0.00378979
0.00379356
0.00379733
0.00380111
0.00380488
0.00380866
0.00381245
0.00381623
0.00382001
0.0038238
0.00382759
0.00383138
0.00383517
0.00383896
0.00384276
0.00384656
0.00385036
0.00385416
0.00385796
0.00386177
0.00386557
0.00386938
0.00387319
0.003877
0.00388082
0.00388463
0.00388845
0.00389227
0.00389609
0.00389992
0.00390374
0.00390757
0.0039114
0.00391523
0.00391906
0.0039229
0.00392674
0.00393058
0.00393441
0.00393826
0.0039421
0.00394595
0.0039498
0.00395364
0.00395749
0.00396135
0.00396521
0.00396906
0.00397292
0.00397678
0.00398064
0.00398451
0.00398837
0.00399224
0.00399611
0.00399998
0.00400386
0.00400774
0.00401162
0.00401549
0.00401938
0.00402326
0.00402715
0.00403103
0.00403492
0.00403881
0.00404271
0.0040466
0.0040505
0.0040544
0.0040583
0.0040622
0.00406611
0.00407001
0.00407392
0.00407783
0.00408174
0.00408566
0.00408957
0.00409349
0.00409741
0.00410133
0.00410525
0.00410918
0.0041131
0.00411703
0.00412096
0.00412489
0.00412883
0.00413276
0.0041367
0.00414064
0.00414458
0.00414853
0.00415247
0.00415642
0.00416036
0.00416432
0.00416827
0.00417222
0.00417618
0.00418014
0.0041841
0.00418806
0.00419203
0.00419599
0.00419996
0.00420393
0.00420791
0.00421188
0.00421585
0.00421983
0.00422381
0.00422779
0.00423178
0.00423576
0.00423975
0.00424374
0.00424773
0.00425172
0.00425571
0.00425971
0.00426371
0.00426771
0.00427171
0.00427571
0.00427972
0.00428373
0.00428774
0.00429175
0.00429576
0.00429977
0.00430379
0.00430781
0.00431183
0.00431585
0.00431988
0.0043239
0.00432793
0.00433196
0.00433599
0.00434002
0.00434406
0.0043481
0.00435214
0.00435618
0.00436022
0.00436426
0.00436831
0.00437236
0.00437641
0.00438046
0.00438451
0.00438857
0.00439263
0.00439669
0.00440075
0.00440482
0.00440888
0.00441295
0.00441702
0.00442109
0.00442516
0.00442924
0.00443332
0.0044374
0.00444147
0.00444556
0.00444964
0.00445373
0.00445782
0.0044619
0.004466
0.00447009
0.00447419
0.00447829
0.00448238
0.00448648
0.00449059
0.00449469
0.0044988
0.00450291
0.00450702
0.00451113
0.00451525
0.00451936
0.00452348
0.0045276
0.00453172
0.00453584
0.00453997
0.00454409
0.00454822
0.00455235
0.00455649
0.00456062
0.00456476
0.0045689
0.00457304
0.00457718
0.00458133
0.00458547
0.00458962
0.00459377
0.00459792
0.00460208
0.00460623
0.00461039
0.00461455
0.00461871
0.00462288
0.00462704
0.0046312
0.00463537
0.00463954
0.00464372
0.00464789
0.00465207
0.00465625
0.00466043
0.00466461
0.00466879
0.00467298
0.00467716
0.00468135
0.00468555
0.00468974
0.00469393
0.00469813
0.00470233
0.00470653
0.00471073
0.00471493
0.00471914
0.00472335
0.00472756
0.00473177
0.00473598
0.0047402
0.00474441
0.00474864
0.00475286
0.00475708
0.0047613
0.00476553
0.00476976
0.00477399
0.00477822
0.00478245
0.00478669
0.00479093
0.00479517
0.00479941
0.00480365
0.0048079
0.00481215
0.0048164
0.00482065
0.0048249
0.00482916
0.00483341
0.00483767
0.00484194
0.00484619
0.00485046
0.00485473
0.004859
0.00486327
0.00486754
0.00487181
0.00487608
0.00488037
0.00488464
0.00488892
0.00489321
0.00489749
0.00490178
0.00490607
0.00491036
0.00491465
0.00491894
0.00492324
0.00492754
0.00493184
0.00493614
0.00494044
0.00494475
0.00494906
0.00495336
0.00495767
0.00496199
0.0049663
0.00497062
0.00497494
0.00497926
0.00498358
0.0049879
0.00499223
0.00499656
0.00500089
0.00500522
0.00500955
0.00501389
0.00501823
0.00502257
0.00502691
0.00503125
0.0050356
0.00503995
0.00504429
0.00504864
0.005053
0.00505735
0.00506171
0.00506607
0.00507043
0.00507479
0.00507915
0.00508352
0.00508788
0.00509225
0.00509662
0.005101
0.00510538
0.00510975
0.00511413
0.00511851
0.00512289
0.00512728
0.00513166
0.00513605
0.00514044
0.00514483
0.00514923
0.00515362
0.00515802
0.00516241
0.00516682
0.00517122
0.00517562
0.00518003
0.00518444
0.00518885
0.00519326
0.00519767
0.00520209
0.00520651
0.00521093
0.00521535
0.00521978
0.0052242
0.00522863
0.00523306
0.00523749
0.00524192
0.00524636
0.00525079
0.00525523
0.00525968
0.00526412
0.00526856
0.00527301
0.00527745
0.00528191
0.00528636
0.00529081
0.00529527
0.00529972
0.00530419
0.00530865
0.00531311
0.00531757
0.00532204
0.00532651
0.00533098
0.00533545
0.00533993
0.0053444
0.00534888
0.00535336
0.00535784
0.00536232
0.00536681
0.0053713
0.00537579
0.00538028
0.00538477
0.00538926
0.00539376
0.00539826
0.00540276
0.00540726
0.00541176
0.00541627
0.00542078
0.00542529
0.0054298
0.00543432
0.00543883
0.00544335
0.00544787
0.00545239
0.00545692
0.00546144
0.00546597
0.0054705
0.00547503
0.00547956
0.00548409
0.00548863
0.00549317
0.00549771
0.00550225
0.00550679
0.00551134
0.00551589
0.00552044
0.00552499
0.00552954
0.0055341
0.00553865
0.00554321
0.00554777
0.00555233
0.0055569
0.00556147
0.00556603
0.0055706
0.00557517
0.00557975
0.00558432
0.0055889
0.00559348
0.00559806
0.00560264
0.00560723
0.00561181
0.0056164
0.00562099
0.00562559
0.00563018
0.00563477
0.00563937
0.00564397
0.00564857
0.00565318
0.00565779
0.00566239
0.005667
0.00567161
0.00567623
0.00568084
0.00568546
0.00569008
0.0056947
0.00569932
0.00570395
0.00570857
0.0057132
0.00571783
0.00572246
0.0057271
0.00573173
0.00573637
0.00574101
0.00574565
0.00575029
0.00575494
0.00575958
0.00576423
0.00576889
0.00577354
0.00577819
0.00578285
0.0057875
0.00579217
0.00579683
0.00580149
0.00580615
0.00581082
0.00581549
0.00582016
0.00582483
0.00582951
0.00583418
0.00583887
0.00584355
0.00584823
0.00585291
0.0058576
0.00586228
0.00586698
0.00587167
0.00587636
0.00588106
0.00588575
0.00589046
0.00589516
0.00589986
0.00590456
0.00590927
0.00591398
0.00591869
0.0059234
0.00592812
0.00593283
0.00593756
0.00594228
0.00594699
0.00595172
0.00595644
0.00596117
0.0059659
0.00597063
0.00597537
0.0059801
0.00598484
0.00598958
0.00599432
0.00599906
0.0060038
0.00600855
0.0060133
0.00601805
0.0060228
0.00602755
0.00603231
0.00603707
0.00604182
0.00604659
0.00605135
0.00605612
0.00606088
0.00606565
0.00607042
0.00607519
0.00607997
0.00608474
0.00608952
0.0060943
0.00609908
0.00610387
0.00610866
0.00611344
0.00611823
0.00612302
0.00612782
0.00613261
0.00613741
0.00614221
0.00614701
0.00615181
0.00615662
0.00616142
0.00616623
0.00617104
0.00617585
0.00618067
0.00618548
0.0061903
0.00619512
0.00619994
0.00620477
0.00620959
0.00621441
0.00621924