/*--------------------------------*- C++ -*----------------------------------*\
| =========                 |                                                 |
| \\      /  F ield         | OpenFOAM: The Open Source CFD Toolbox           |
|  \\    /   O peration     | Version:  2206                                  |
|   \\  /    A nd           | Website:  www.openfoam.com                      |
|    \\/     M anipulation  |                                                 |
\*---------------------------------------------------------------------------*/
FoamFile
{
    version     2.0;
    format      ascii;
    arch        "LSB;label=32;scalar=64";
    class       volVectorField;
    location    "300";
    object      U;
}
// * * * * * * * * * * * * * * * * * * * * * * * * * * * * * * * * * * * * * //

dimensions      [0 1 -1 0 0 0 0];

internalField   nonuniform List<vector> 
100000
(
(-5.60108e-12 6.42696e-06 5.92065e-14)
(-4.98146e-12 1.195e-05 1.03282e-13)
(-7.63376e-12 2.17991e-05 1.42499e-13)
(-1.42004e-11 3.23787e-05 1.53395e-13)
(-1.74498e-11 4.19753e-05 8.71048e-14)
(-1.6788e-11 4.44006e-05 7.35805e-14)
(-2.04916e-11 5.42145e-05 1.40052e-13)
(-2.60753e-11 6.493e-05 1.47193e-13)
(-3.108e-11 7.56284e-05 1.48117e-13)
(-3.55791e-11 8.53094e-05 8.37978e-14)
(-3.37183e-11 8.767e-05 7.7603e-14)
(-3.80663e-11 9.74582e-05 1.42156e-13)
(-4.32987e-11 0.000108178 1.47444e-13)
(-4.84472e-11 0.000118885 1.46913e-13)
(-5.29245e-11 0.000128589 8.27306e-14)
(-5.09379e-11 0.000130938 7.82539e-14)
(-5.55506e-11 0.000140714 1.43224e-13)
(-6.03776e-11 0.000151434 1.47115e-13)
(-6.60906e-11 0.000162144 1.46667e-13)
(-6.98302e-11 0.00017186 8.16972e-14)
(-6.87703e-11 0.000174204 7.92315e-14)
(-7.22391e-11 0.000183973 1.43046e-13)
(-7.84723e-11 0.000194699 1.48575e-13)
(-8.25665e-11 0.0002055 1.50239e-13)
(-8.88258e-11 0.000216219 1.46924e-13)
(-9.23234e-11 0.000225942 8.29133e-14)
(-9.11947e-11 0.000228284 7.95187e-14)
(-9.49533e-11 0.000238048 1.45415e-13)
(-1.00651e-10 0.000248767 1.48321e-13)
(-1.05514e-10 0.000259481 1.47273e-13)
(-1.10159e-10 0.000269207 8.18746e-14)
(-1.08087e-10 0.000271548 8.01614e-14)
(-1.12631e-10 0.000281309 1.44894e-13)
(-1.17677e-10 0.000292028 1.48528e-13)
(-1.23075e-10 0.000302742 1.46615e-13)
(-1.27274e-10 0.000312471 8.19107e-14)
(-1.25576e-10 0.000314812 7.9974e-14)
(-1.29815e-10 0.000324571 1.45064e-13)
(-1.35112e-10 0.000335289 1.48217e-13)
(-1.403e-10 0.000346004 1.46517e-13)
(-1.44669e-10 0.000355735 8.16057e-14)
(-1.42835e-10 0.000358075 8.01151e-14)
(-1.47188e-10 0.000367832 1.44952e-13)
(-1.52391e-10 0.000378551 1.48184e-13)
(-1.57652e-10 0.000389265 1.46263e-13)
(-1.61961e-10 0.000398998 8.15231e-14)
(-1.60176e-10 0.000401338 8.00904e-14)
(-1.64494e-10 0.000411094 1.44984e-13)
(-1.69721e-10 0.000421812 1.48051e-13)
(-1.74966e-10 0.000432527 1.46157e-13)
(-1.7928e-10 0.000442261 8.13673e-14)
(-1.77502e-10 0.000444601 8.0155e-14)
(-1.81807e-10 0.000454356 1.44928e-13)
(-1.87056e-10 0.000465074 1.48023e-13)
(-1.92266e-10 0.000475789 1.4599e-13)
(-1.96623e-10 0.000485524 8.13232e-14)
(-1.94791e-10 0.000487864 8.012e-14)
(-1.99167e-10 0.000497618 1.44978e-13)
(-2.04328e-10 0.000508336 1.47895e-13)
(-2.09645e-10 0.000519051 1.45969e-13)
(-2.1387e-10 0.000528787 8.11526e-14)
(-2.12199e-10 0.000531126 8.02445e-14)
(-2.16382e-10 0.00054088 1.44841e-13)
(-2.21775e-10 0.000551598 1.47995e-13)
(-2.26812e-10 0.000562313 1.45707e-13)
(-2.31373e-10 0.000572049 8.12971e-14)
(-2.293e-10 0.000574389 8.0008e-14)
(-2.33967e-10 0.000584142 1.45131e-13)
(-2.38778e-10 0.00059486 1.47597e-13)
(-2.44512e-10 0.000605575 1.46059e-13)
(-2.48236e-10 0.000615312 8.07329e-14)
(-2.47168e-10 0.000617652 8.06312e-14)
(-2.50631e-10 0.000627404 1.4443e-13)
(-2.56889e-10 0.000638128 1.49115e-13)
(-2.60969e-10 0.00064893 1.49616e-13)
(-2.67232e-10 0.000659652 1.45651e-13)
(-2.70709e-10 0.00066939 8.17534e-14)
(-2.69614e-10 0.00067173 8.00925e-14)
(-2.73353e-10 0.000681481 1.45677e-13)
(-2.79069e-10 0.000692199 1.4798e-13)
(-2.83906e-10 0.000702915 1.46292e-13)
(-2.88564e-10 0.000712653 8.10643e-14)
(-2.86489e-10 0.000714992 8.06056e-14)
(-2.91043e-10 0.000724743 1.45213e-13)
(-2.96082e-10 0.000735461 1.48282e-13)
(-3.0148e-10 0.000746177 1.45923e-13)
(-3.0567e-10 0.000755915 8.12567e-14)
(-3.03986e-10 0.000758255 8.03986e-14)
(-3.08215e-10 0.000768005 1.4535e-13)
(-3.13525e-10 0.000778723 1.48098e-13)
(-3.18696e-10 0.000789439 1.45968e-13)
(-3.23075e-10 0.000799178 8.11211e-14)
(-3.21233e-10 0.000801517 8.04656e-14)
(-3.25599e-10 0.000811267 1.45266e-13)
(-3.3079e-10 0.000821985 1.48098e-13)
(-3.36063e-10 0.000832701 1.45877e-13)
(-3.40351e-10 0.00084244 8.11028e-14)
(-3.38593e-10 0.00084478 8.04473e-14)
(-3.4288e-10 0.00085453 1.45248e-13)
(-3.48148e-10 0.000865247 1.48062e-13)
(-3.53344e-10 0.000875963 1.45812e-13)
(-3.57711e-10 0.000885703 8.1086e-14)
(-3.55869e-10 0.000888042 8.04139e-14)
(-3.60251e-10 0.000897792 1.45266e-13)
(-3.6541e-10 0.000908509 1.47976e-13)
(-3.70729e-10 0.000919225 1.45827e-13)
(-3.74953e-10 0.000928965 8.09745e-14)
(-3.7328e-10 0.000931304 8.05054e-14)
(-3.77463e-10 0.000941054 1.45131e-13)
(-3.82859e-10 0.000951771 1.48084e-13)
(-3.87895e-10 0.000962488 1.45615e-13)
(-3.92456e-10 0.000972227 8.11473e-14)
(-3.9038e-10 0.000974567 8.02575e-14)
(-3.95046e-10 0.000984316 1.45407e-13)
(-3.99863e-10 0.000995034 1.47703e-13)
(-4.05593e-10 0.00100575 1.45998e-13)
(-4.0932e-10 0.00101549 8.06125e-14)
(-4.08246e-10 0.00101783 8.08668e-14)
(-4.11712e-10 0.00102758 1.44694e-13)
(-4.17971e-10 0.0010383 1.49232e-13)
(-4.22051e-10 0.0010491 1.49543e-13)
(-4.28314e-10 0.00105983 1.45443e-13)
(-4.31789e-10 0.00106957 8.15603e-14)
(-4.30697e-10 0.00107191 8.02152e-14)
(-4.34434e-10 0.00108166 1.45764e-13)
(-4.40153e-10 0.00109237 1.47934e-13)
(-4.44986e-10 0.00110309 1.4612e-13)
(-4.49645e-10 0.00111283 8.09011e-14)
(-4.4757e-10 0.00111517 8.07261e-14)
(-4.52124e-10 0.00112492 1.45307e-13)
(-4.57165e-10 0.00113564 1.48259e-13)
(-4.62561e-10 0.00114635 1.4578e-13)
(-4.66752e-10 0.00115609 8.11218e-14)
(-4.65066e-10 0.00115843 8.05116e-14)
(-4.69299e-10 0.00116818 1.45456e-13)
(-4.74605e-10 0.0011789 1.48085e-13)
(-4.7978e-10 0.00118961 1.4586e-13)
(-4.84153e-10 0.00119935 8.09973e-14)
(-4.82319e-10 0.00120169 8.05868e-14)
(-4.86674e-10 0.00121144 1.45365e-13)
(-4.91879e-10 0.00122216 1.48115e-13)
(-4.97135e-10 0.00123288 1.45775e-13)
(-5.01443e-10 0.00124262 8.10165e-14)
(-4.9966e-10 0.00124496 8.05424e-14)
(-5.03977e-10 0.0012547 1.45378e-13)
(-5.0921e-10 0.00126542 1.48058e-13)
(-5.14448e-10 0.00127614 1.4577e-13)
(-5.18764e-10 0.00128588 8.09674e-14)
(-5.16983e-10 0.00128822 8.05629e-14)
(-5.2129e-10 0.00129797 1.45332e-13)
(-5.26542e-10 0.00130868 1.48063e-13)
(-5.3175e-10 0.0013194 1.45705e-13)
(-5.36106e-10 0.00132914 8.09844e-14)
(-5.34273e-10 0.00133148 8.05135e-14)
(-5.38647e-10 0.00134123 1.45365e-13)
(-5.43815e-10 0.00135195 1.4798e-13)
(-5.49127e-10 0.00136266 1.45746e-13)
(-5.53355e-10 0.0013724 8.08821e-14)
(-5.51678e-10 0.00137474 8.06068e-14)
(-5.55864e-10 0.00138449 1.4523e-13)
(-5.61258e-10 0.00139521 1.481e-13)
(-5.66296e-10 0.00140592 1.45549e-13)
(-5.70855e-10 0.00141567 8.10683e-14)
(-5.68781e-10 0.00141801 8.03563e-14)
(-5.73445e-10 0.00142775 1.45509e-13)
(-5.78265e-10 0.00143847 1.47727e-13)
(-5.83992e-10 0.00144919 1.45947e-13)
(-5.87722e-10 0.00145893 8.05431e-14)
(-5.86645e-10 0.00146127 8.09653e-14)
(-5.90113e-10 0.00147102 1.44795e-13)
(-5.96372e-10 0.00148174 1.49264e-13)
(-6.00452e-10 0.00149254 1.49484e-13)
(-6.06713e-10 0.00150326 1.4532e-13)
(-6.10187e-10 0.00151301 8.14532e-14)
(-6.09098e-10 0.00151535 8.02638e-14)
(-6.12833e-10 0.00152509 1.45784e-13)
(-6.18554e-10 0.00153581 1.47889e-13)
(-6.23385e-10 0.00154653 1.4601e-13)
(-6.28045e-10 0.00155627 8.08074e-14)
(-6.2597e-10 0.00155861 8.07743e-14)
(-6.30526e-10 0.00156836 1.45335e-13)
(-6.35564e-10 0.00157907 1.48224e-13)
(-6.40962e-10 0.00158979 1.45686e-13)
(-6.45149e-10 0.00159953 8.10367e-14)
(-6.43468e-10 0.00160187 8.05628e-14)
(-6.47696e-10 0.00161162 1.45487e-13)
(-6.53008e-10 0.00162234 1.48063e-13)
(-6.58176e-10 0.00163305 1.45775e-13)
(-6.62556e-10 0.00164279 8.09268e-14)
(-6.60713e-10 0.00164513 8.06318e-14)
(-6.6508e-10 0.00165488 1.45409e-13)
(-6.70272e-10 0.0016656 1.4809e-13)
(-6.75544e-10 0.00167631 1.45715e-13)
(-6.79831e-10 0.00168606 8.09377e-14)
(-6.78074e-10 0.00168839 8.06082e-14)
(-6.82361e-10 0.00169814 1.45402e-13)
(-6.8763e-10 0.00170886 1.4807e-13)
(-6.92825e-10 0.00171958 1.45684e-13)
(-6.97192e-10 0.00172932 8.094e-14)
(-6.95349e-10 0.00173166 8.05758e-14)
(-6.9973e-10 0.0017414 1.45424e-13)
(-7.04893e-10 0.00175212 1.48004e-13)
(-7.10209e-10 0.00176284 1.45722e-13)
(-7.14434e-10 0.00177258 8.08507e-14)
(-7.12759e-10 0.00177492 8.06628e-14)
(-7.16943e-10 0.00178467 1.45296e-13)
(-7.2234e-10 0.00179538 1.48124e-13)
(-7.27376e-10 0.0018061 1.45535e-13)
(-7.31936e-10 0.00181584 8.10392e-14)
(-7.2986e-10 0.00181818 8.04139e-14)
(-7.34525e-10 0.00182793 1.45576e-13)
(-7.39345e-10 0.00183865 1.47755e-13)
(-7.45073e-10 0.00184936 1.45938e-13)
(-7.48802e-10 0.0018591 8.0518e-14)
(-7.47724e-10 0.00186144 8.10235e-14)
(-7.51192e-10 0.00187119 1.44862e-13)
(-7.57452e-10 0.00188192 1.49298e-13)
(-7.61532e-10 0.00189272 1.49471e-13)
(-7.67793e-10 0.00190344 1.45275e-13)
(-7.71267e-10 0.00191318 8.14082e-14)
(-7.70178e-10 0.00191552 8.02973e-14)
(-7.73914e-10 0.00192527 1.4581e-13)
(-7.79635e-10 0.00193599 1.47882e-13)
(-7.84465e-10 0.0019467 1.45971e-13)
(-7.89124e-10 0.00195644 8.07677e-14)
(-7.8705e-10 0.00195878 8.08087e-14)
(-7.91605e-10 0.00196853 1.45364e-13)
(-7.96645e-10 0.00197925 1.48223e-13)
(-8.02041e-10 0.00198996 1.45651e-13)
(-8.0623e-10 0.00199971 8.10035e-14)
(-8.04547e-10 0.00200205 8.05951e-14)
(-8.08778e-10 0.00201179 1.45522e-13)
(-8.14086e-10 0.00202251 1.48061e-13)
(-8.19259e-10 0.00203323 1.45752e-13)
(-8.23632e-10 0.00204297 8.08908e-14)
(-8.21798e-10 0.00204531 8.06729e-14)
(-8.26154e-10 0.00205506 1.45437e-13)
(-8.3136e-10 0.00206577 1.48105e-13)
(-8.36615e-10 0.00207649 1.45682e-13)
(-8.40923e-10 0.00208623 8.0923e-14)
(-8.3914e-10 0.00208857 8.06284e-14)
(-8.43457e-10 0.00209832 1.45458e-13)
(-8.48691e-10 0.00210903 1.48058e-13)
(-8.53928e-10 0.00211975 1.45693e-13)
(-8.58244e-10 0.00212949 8.08835e-14)
(-8.56463e-10 0.00213183 8.06508e-14)
(-8.60769e-10 0.00214158 1.45416e-13)
(-8.66022e-10 0.0021523 1.48073e-13)
(-8.7123e-10 0.00216301 1.45641e-13)
(-8.75586e-10 0.00217276 8.09111e-14)
(-8.73752e-10 0.0021751 8.06012e-14)
(-8.78126e-10 0.00218484 1.45455e-13)
(-8.83295e-10 0.00219556 1.47999e-13)
(-8.88606e-10 0.00220628 1.45695e-13)
(-8.92836e-10 0.00221602 8.08167e-14)
(-8.91157e-10 0.00221836 8.06959e-14)
(-8.95344e-10 0.0022281 1.45324e-13)
(-9.00738e-10 0.00223882 1.48128e-13)
(-9.05777e-10 0.00224954 1.45508e-13)
(-9.10334e-10 0.00225928 8.10121e-14)
(-9.0826e-10 0.00226162 8.04444e-14)
(-9.12923e-10 0.00227137 1.45608e-13)
(-9.17745e-10 0.00228208 1.47759e-13)
(-9.23472e-10 0.0022928 1.45918e-13)
(-9.27202e-10 0.00230254 8.04915e-14)
(-9.26123e-10 0.00230488 8.10568e-14)
(-9.29592e-10 0.00231463 1.44893e-13)
(-9.35851e-10 0.00232535 1.49307e-13)
(-9.39931e-10 0.00233615 1.49446e-13)
(-9.46192e-10 0.00234688 1.45229e-13)
(-9.49665e-10 0.00235662 8.13676e-14)
(-9.48578e-10 0.00235896 8.03138e-14)
(-9.52313e-10 0.00236871 1.45814e-13)
(-9.58035e-10 0.00237942 1.47863e-13)
(-9.62863e-10 0.00239014 1.45927e-13)
(-9.67524e-10 0.00239988 8.07326e-14)
(-9.65449e-10 0.00240222 8.0824e-14)
(-9.70006e-10 0.00241197 1.45372e-13)
(-9.75043e-10 0.00242269 1.48205e-13)
(-9.80441e-10 0.0024334 1.45615e-13)
(-9.84628e-10 0.00244315 8.09682e-14)
(-9.82948e-10 0.00244548 8.06148e-14)
(-9.87175e-10 0.00245523 1.45529e-13)
(-9.92488e-10 0.00246595 1.48052e-13)
(-9.97655e-10 0.00247666 1.45713e-13)
(-1.00204e-09 0.00248641 8.08654e-14)
(-1.00019e-09 0.00248875 8.06849e-14)
(-1.00456e-09 0.00249849 1.45457e-13)
(-1.00975e-09 0.00250921 1.48086e-13)
(-1.01502e-09 0.00251993 1.45662e-13)
(-1.01931e-09 0.00252967 8.08823e-14)
(-1.01755e-09 0.00253201 8.06628e-14)
(-1.02184e-09 0.00254176 1.45454e-13)
(-1.02711e-09 0.00255247 1.48073e-13)
(-1.0323e-09 0.00256319 1.45639e-13)
(-1.03667e-09 0.00257293 8.08906e-14)
(-1.03483e-09 0.00257527 8.06313e-14)
(-1.03921e-09 0.00258502 1.45479e-13)
(-1.04437e-09 0.00259573 1.48013e-13)
(-1.04969e-09 0.00260645 1.45686e-13)
(-1.05391e-09 0.00261619 8.08063e-14)
(-1.05224e-09 0.00261853 8.07195e-14)
(-1.05642e-09 0.00262828 1.45355e-13)
(-1.06182e-09 0.002639 1.48139e-13)
(-1.06686e-09 0.00264971 1.45505e-13)
(-1.07141e-09 0.00265946 8.10003e-14)
(-1.06934e-09 0.0026618 8.04709e-14)
(-1.074e-09 0.00267154 1.45638e-13)
(-1.07882e-09 0.00268226 1.47774e-13)
(-1.08455e-09 0.00269298 1.45916e-13)
(-1.08828e-09 0.00270272 8.04822e-14)
(-1.0872e-09 0.00270506 8.10831e-14)
(-1.09067e-09 0.0027148 1.44925e-13)
(-1.09693e-09 0.00272553 1.49323e-13)
(-1.10101e-09 0.00273633 1.49443e-13)
(-1.10727e-09 0.00274705 1.45211e-13)
(-1.11074e-09 0.0027568 8.13491e-14)
(-1.10966e-09 0.00275914 8.03296e-14)
(-1.11339e-09 0.00276888 1.45828e-13)
(-1.11911e-09 0.0027796 1.47862e-13)
(-1.12394e-09 0.00279032 1.45911e-13)
(-1.1286e-09 0.00280006 8.07152e-14)
(-1.12653e-09 0.0028024 8.08413e-14)
(-1.13108e-09 0.00281214 1.45387e-13)
(-1.13612e-09 0.00282286 1.48207e-13)
(-1.14152e-09 0.00283358 1.456e-13)
(-1.14571e-09 0.00284332 8.09552e-14)
(-1.14403e-09 0.00284566 8.06294e-14)
(-1.14826e-09 0.00285541 1.45549e-13)
(-1.15357e-09 0.00286612 1.48052e-13)
(-1.15874e-09 0.00287684 1.45707e-13)
(-1.16311e-09 0.00288658 8.08469e-14)
(-1.16128e-09 0.00288892 8.07086e-14)
(-1.16563e-09 0.00289867 1.45468e-13)
(-1.17084e-09 0.00290939 1.481e-13)
(-1.17609e-09 0.0029201 1.45643e-13)
(-1.1804e-09 0.00292985 8.08832e-14)
(-1.17862e-09 0.00293218 8.06653e-14)
(-1.18294e-09 0.00294193 1.45492e-13)
(-1.18817e-09 0.00295265 1.48058e-13)
(-1.19341e-09 0.00296336 1.4566e-13)
(-1.19772e-09 0.00297311 8.08475e-14)
(-1.19594e-09 0.00297545 8.06888e-14)
(-1.20025e-09 0.00298519 1.45453e-13)
(-1.2055e-09 0.00299591 1.48078e-13)
(-1.21071e-09 0.00300663 1.45613e-13)
(-1.21506e-09 0.00301637 8.08787e-14)
(-1.21323e-09 0.00301871 8.06401e-14)
(-1.2176e-09 0.00302846 1.45495e-13)
(-1.22277e-09 0.00303917 1.48007e-13)
(-1.22808e-09 0.00304989 1.45672e-13)
(-1.23231e-09 0.00305963 8.07875e-14)
(-1.23064e-09 0.00306197 8.07359e-14)
(-1.23482e-09 0.00307172 1.45366e-13)
(-1.24022e-09 0.00308243 1.4814e-13)
(-1.24526e-09 0.00309315 1.4549e-13)
(-1.24981e-09 0.00310289 8.09863e-14)
(-1.24774e-09 0.00310523 8.04848e-14)
(-1.2524e-09 0.00311498 1.45653e-13)
(-1.25722e-09 0.0031257 1.47774e-13)
(-1.26295e-09 0.00313641 1.45905e-13)
(-1.26668e-09 0.00314616 8.04678e-14)
(-1.2656e-09 0.0031485 8.10993e-14)
(-1.26907e-09 0.00315824 1.44939e-13)
(-1.27533e-09 0.00316897 1.49326e-13)
(-1.27941e-09 0.00317977 1.49428e-13)
(-1.28567e-09 0.00319049 1.45186e-13)
(-1.28914e-09 0.00320023 8.13273e-14)
(-1.28806e-09 0.00320257 8.03375e-14)
(-1.29179e-09 0.00321232 1.45828e-13)
(-1.29751e-09 0.00322304 1.47851e-13)
(-1.30234e-09 0.00323375 1.45887e-13)
(-1.307e-09 0.0032435 8.06967e-14)
(-1.30493e-09 0.00324584 8.08479e-14)
(-1.30948e-09 0.00325558 1.4539e-13)
(-1.31452e-09 0.0032663 1.48196e-13)
(-1.31992e-09 0.00327702 1.4558e-13)
(-1.32411e-09 0.00328676 8.0935e-14)
(-1.32243e-09 0.0032891 8.06402e-14)
(-1.32665e-09 0.00329884 1.45549e-13)
(-1.33197e-09 0.00330956 1.48047e-13)
(-1.33713e-09 0.00332028 1.45683e-13)
(-1.34151e-09 0.00333002 8.08352e-14)
(-1.33967e-09 0.00333236 8.07112e-14)
(-1.34404e-09 0.00334211 1.4548e-13)
(-1.34923e-09 0.00335282 1.48085e-13)
(-1.3545e-09 0.00336354 1.45636e-13)
(-1.35879e-09 0.00337328 8.08547e-14)
(-1.35703e-09 0.00337562 8.06902e-14)
(-1.36132e-09 0.00338537 1.45479e-13)
(-1.36659e-09 0.00339609 1.48075e-13)
(-1.37178e-09 0.0034068 1.45617e-13)
(-1.37615e-09 0.00341655 8.08656e-14)
(-1.37431e-09 0.00341888 8.06595e-14)
(-1.37869e-09 0.00342863 1.45507e-13)
(-1.38385e-09 0.00343935 1.48018e-13)
(-1.38917e-09 0.00345006 1.45667e-13)
(-1.39339e-09 0.00345981 8.07836e-14)
(-1.39172e-09 0.00346215 8.07488e-14)
(-1.3959e-09 0.00347189 1.45385e-13)
(-1.4013e-09 0.00348261 1.48147e-13)
(-1.40633e-09 0.00349333 1.4549e-13)
(-1.41089e-09 0.00350307 8.09802e-14)
(-1.40882e-09 0.00350541 8.05005e-14)
(-1.41348e-09 0.00351516 1.45671e-13)
(-1.4183e-09 0.00352587 1.47784e-13)
(-1.42403e-09 0.00353659 1.45905e-13)
(-1.42776e-09 0.00354633 8.04634e-14)
(-1.42668e-09 0.00354867 8.11146e-14)
(-1.43015e-09 0.00355842 1.44958e-13)
(-1.43641e-09 0.00356914 1.49337e-13)
(-1.44049e-09 0.00357994 1.49428e-13)
(-1.44675e-09 0.00359067 1.45177e-13)
(-1.45022e-09 0.00360041 8.13177e-14)
(-1.44914e-09 0.00360275 8.03469e-14)
(-1.45287e-09 0.0036125 1.45838e-13)
(-1.45859e-09 0.00362321 1.47851e-13)
(-1.46342e-09 0.00363393 1.4588e-13)
(-1.46808e-09 0.00364367 8.06872e-14)
(-1.46601e-09 0.00364601 8.08588e-14)
(-1.47056e-09 0.00365576 1.45399e-13)
(-1.4756e-09 0.00366647 1.48199e-13)
(-1.481e-09 0.00367719 1.45572e-13)
(-1.48519e-09 0.00368693 8.0929e-14)
(-1.4835e-09 0.00368927 8.06482e-14)
(-1.48774e-09 0.00369902 1.45563e-13)
(-1.49304e-09 0.00370974 1.48047e-13)
(-1.49822e-09 0.00372045 1.45682e-13)
(-1.50259e-09 0.0037302 8.08231e-14)
(-1.50076e-09 0.00373254 8.0728e-14)
(-1.50511e-09 0.00374228 1.45484e-13)
(-1.51032e-09 0.003753 1.48097e-13)
(-1.51557e-09 0.00376372 1.45621e-13)
(-1.51988e-09 0.00377346 8.08611e-14)
(-1.5181e-09 0.0037758 8.06859e-14)
(-1.52241e-09 0.00378554 1.4551e-13)
(-1.52765e-09 0.00379626 1.48058e-13)
(-1.53289e-09 0.00380698 1.45641e-13)
(-1.5372e-09 0.00381672 8.08276e-14)
(-1.53542e-09 0.00381906 8.07099e-14)
(-1.53973e-09 0.00382881 1.45474e-13)
(-1.54498e-09 0.00383952 1.4808e-13)
(-1.55019e-09 0.00385024 1.45598e-13)
(-1.55454e-09 0.00385998 8.08603e-14)
(-1.55271e-09 0.00386232 8.06623e-14)
(-1.55708e-09 0.00387207 1.45517e-13)
(-1.56225e-09 0.00388279 1.48012e-13)
(-1.56756e-09 0.0038935 1.45659e-13)
(-1.57179e-09 0.00390325 8.07712e-14)
(-1.57011e-09 0.00390559 8.07584e-14)
(-1.5743e-09 0.00391533 1.4539e-13)
(-1.5797e-09 0.00392605 1.48147e-13)
(-1.58473e-09 0.00393676 1.45479e-13)
(-1.58929e-09 0.00394651 8.09714e-14)
(-1.58722e-09 0.00394885 8.05082e-14)
(-1.59188e-09 0.00395859 1.45679e-13)
(-1.5967e-09 0.00396931 1.47783e-13)
(-1.60243e-09 0.00398003 1.45897e-13)
(-1.60616e-09 0.00398977 8.04543e-14)
(-1.60508e-09 0.00399211 8.11236e-14)
(-1.60855e-09 0.00400186 1.44966e-13)
(-1.61481e-09 0.00401258 1.49337e-13)
(-1.61889e-09 0.00402338 1.49418e-13)
(-1.62515e-09 0.0040341 1.4516e-13)
(-1.62862e-09 0.00404385 8.1304e-14)
(-1.62754e-09 0.00404619 8.03511e-14)
(-1.63127e-09 0.00405593 1.45837e-13)
(-1.63699e-09 0.00406665 1.47844e-13)
(-1.64182e-09 0.00407737 1.45864e-13)
(-1.64648e-09 0.00408711 8.06754e-14)
(-1.64441e-09 0.00408945 8.08622e-14)
(-1.64896e-09 0.0040992 1.45401e-13)
(-1.654e-09 0.00410991 1.48191e-13)
(-1.6594e-09 0.00412063 1.45559e-13)
(-1.66358e-09 0.00413037 8.09156e-14)
(-1.66191e-09 0.00413271 8.0655e-14)
(-1.66613e-09 0.00414246 1.45562e-13)
(-1.67145e-09 0.00415317 1.48044e-13)
(-1.67661e-09 0.00416389 1.45665e-13)
(-1.68099e-09 0.00417364 8.0817e-14)
(-1.67915e-09 0.00417597 8.07271e-14)
(-1.68352e-09 0.00418572 1.45494e-13)
(-1.68871e-09 0.00419644 1.48084e-13)
(-1.69398e-09 0.00420715 1.4562e-13)
(-1.69827e-09 0.0042169 8.08384e-14)
(-1.69651e-09 0.00421924 8.07064e-14)
(-1.7008e-09 0.00422898 1.45495e-13)
(-1.70607e-09 0.0042397 1.48076e-13)
(-1.71126e-09 0.00425042 1.45604e-13)
(-1.71563e-09 0.00426016 8.08503e-14)
(-1.71378e-09 0.0042625 8.06767e-14)
(-1.71817e-09 0.00427224 1.45524e-13)
(-1.72333e-09 0.00428296 1.48021e-13)
(-1.72865e-09 0.00429368 1.45656e-13)
(-1.73287e-09 0.00430342 8.077e-14)
(-1.73119e-09 0.00430576 8.07663e-14)
(-1.73538e-09 0.00431551 1.45404e-13)
(-1.74078e-09 0.00432622 1.48151e-13)
(-1.74581e-09 0.00433694 1.45481e-13)
(-1.75037e-09 0.00434668 8.09676e-14)
(-1.7483e-09 0.00434902 8.05189e-14)
(-1.75296e-09 0.00435877 1.45691e-13)
(-1.75778e-09 0.00436949 1.47791e-13)
(-1.76351e-09 0.0043802 1.45898e-13)
(-1.76724e-09 0.00438995 8.04521e-14)
(-1.76616e-09 0.00439229 8.11337e-14)
(-1.76963e-09 0.00440203 1.44979e-13)
(-1.77589e-09 0.00441275 1.49345e-13)
(-1.77997e-09 0.00442356 1.49419e-13)
(-1.78623e-09 0.00443428 1.45155e-13)
(-1.7897e-09 0.00444402 8.12985e-14)
(-1.78862e-09 0.00444636 8.03574e-14)
(-1.79235e-09 0.00445611 1.45844e-13)
(-1.79807e-09 0.00446683 1.47844e-13)
(-1.8029e-09 0.00447754 1.4586e-13)
(-1.80756e-09 0.00448729 8.06694e-14)
(-1.80549e-09 0.00448963 8.08699e-14)
(-1.81004e-09 0.00449937 1.45407e-13)
(-1.81508e-09 0.00451009 1.48194e-13)
(-1.82048e-09 0.0045208 1.45554e-13)
(-1.82467e-09 0.00453055 8.09128e-14)
(-1.82298e-09 0.00453289 8.06597e-14)
(-1.82721e-09 0.00454263 1.45572e-13)
(-1.83252e-09 0.00455335 1.48043e-13)
(-1.83769e-09 0.00456407 1.45667e-13)
(-1.84207e-09 0.00457381 8.08078e-14)
(-1.84023e-09 0.00457615 8.07406e-14)
(-1.84459e-09 0.0045859 1.45495e-13)
(-1.8498e-09 0.00459661 1.48096e-13)
(-1.85505e-09 0.00460733 1.45608e-13)
(-1.85936e-09 0.00461707 8.08474e-14)
(-1.85758e-09 0.00461941 8.06986e-14)
(-1.86189e-09 0.00462916 1.45523e-13)
(-1.86713e-09 0.00463987 1.48057e-13)
(-1.87236e-09 0.00465059 1.45629e-13)
(-1.87668e-09 0.00466034 8.08146e-14)
(-1.8749e-09 0.00466267 8.07236e-14)
(-1.8792e-09 0.00467242 1.45487e-13)
(-1.88446e-09 0.00468314 1.48082e-13)
(-1.88967e-09 0.00469385 1.45588e-13)
(-1.89402e-09 0.0047036 8.08489e-14)
(-1.89219e-09 0.00470594 8.06762e-14)
(-1.89656e-09 0.00471568 1.45532e-13)
(-1.90173e-09 0.0047264 1.48015e-13)
(-1.90704e-09 0.00473712 1.45651e-13)
(-1.91127e-09 0.00474686 8.07603e-14)
(-1.90959e-09 0.0047492 8.07733e-14)
(-1.91378e-09 0.00475894 1.45406e-13)
(-1.91917e-09 0.00476966 1.48151e-13)
(-1.92421e-09 0.00478038 1.45472e-13)
(-1.92877e-09 0.00479012 8.09621e-14)
(-1.9267e-09 0.00479246 8.05231e-14)
(-1.93136e-09 0.00480221 1.45696e-13)
(-1.93618e-09 0.00481292 1.47789e-13)
(-1.94191e-09 0.00482364 1.45893e-13)
(-1.94564e-09 0.00483338 8.04451e-14)
(-1.94456e-09 0.00483572 8.11399e-14)
(-1.94803e-09 0.00484547 1.44983e-13)
(-1.95429e-09 0.00485619 1.49345e-13)
(-1.95837e-09 0.00486699 1.49412e-13)
(-1.96463e-09 0.00487772 1.45144e-13)
(-1.9681e-09 0.00488746 8.12885e-14)
(-1.96701e-09 0.0048898 8.03603e-14)
(-1.97075e-09 0.00489955 1.45842e-13)
(-1.97647e-09 0.00491026 1.47839e-13)
(-1.9813e-09 0.00492098 1.45848e-13)
(-1.98596e-09 0.00493072 8.06618e-14)
(-1.98388e-09 0.00493306 8.08712e-14)
(-1.98844e-09 0.00494281 1.45408e-13)
(-1.99348e-09 0.00495353 1.48187e-13)
(-1.99888e-09 0.00496424 1.45546e-13)
(-2.00306e-09 0.00497399 8.09024e-14)
(-2.00138e-09 0.00497633 8.06651e-14)
(-2.00561e-09 0.00498607 1.4557e-13)
(-2.01092e-09 0.00499679 1.48042e-13)
(-2.01609e-09 0.00500751 1.45653e-13)
(-2.02047e-09 0.00501725 8.08053e-14)
(-2.01863e-09 0.00501959 8.07373e-14)
(-2.02299e-09 0.00502933 1.45503e-13)
(-2.02819e-09 0.00504005 1.48083e-13)
(-2.03346e-09 0.00505077 1.4561e-13)
(-2.03775e-09 0.00506051 8.08271e-14)
(-2.03599e-09 0.00506285 8.07176e-14)
(-2.04028e-09 0.0050726 1.45505e-13)
(-2.04555e-09 0.00508331 1.48077e-13)
(-2.05074e-09 0.00509403 1.45594e-13)
(-2.05511e-09 0.00510377 8.08405e-14)
(-2.05326e-09 0.00510611 8.06879e-14)
(-2.05764e-09 0.00511586 1.45536e-13)
(-2.06281e-09 0.00512657 1.48022e-13)
(-2.06812e-09 0.00513729 1.45649e-13)
(-2.07235e-09 0.00514704 8.07606e-14)
(-2.07067e-09 0.00514937 8.07785e-14)
(-2.07486e-09 0.00515912 1.45416e-13)
(-2.08025e-09 0.00516984 1.48155e-13)
(-2.08529e-09 0.00518055 1.45474e-13)
(-2.08985e-09 0.0051903 8.09595e-14)
(-2.08777e-09 0.00519264 8.0531e-14)
(-2.09244e-09 0.00520238 1.45705e-13)
(-2.09726e-09 0.0052131 1.47794e-13)
(-2.10299e-09 0.00522382 1.45893e-13)
(-2.10672e-09 0.00523356 8.0444e-14)
(-2.10564e-09 0.0052359 8.1147e-14)
(-2.10911e-09 0.00524564 1.44992e-13)
(-2.11537e-09 0.00525637 1.49351e-13)
(-2.11945e-09 0.00526717 1.49413e-13)
(-2.12571e-09 0.00527789 1.45141e-13)
(-2.12918e-09 0.00528764 8.1285e-14)
(-2.12809e-09 0.00528998 8.03649e-14)
(-2.13183e-09 0.00529972 1.45847e-13)
(-2.13755e-09 0.00531044 1.4784e-13)
(-2.14238e-09 0.00532116 1.45846e-13)
(-2.14704e-09 0.0053309 8.06577e-14)
(-2.14496e-09 0.00533324 8.08772e-14)
(-2.14952e-09 0.00534298 1.45412e-13)
(-2.15456e-09 0.0053537 1.48191e-13)
(-2.15995e-09 0.00536442 1.45543e-13)
(-2.16414e-09 0.00537416 8.09013e-14)
(-2.16246e-09 0.0053765 8.06681e-14)
(-2.16669e-09 0.00538625 1.45578e-13)
(-2.172e-09 0.00539696 1.48041e-13)
(-2.17717e-09 0.00540768 1.45656e-13)
(-2.18155e-09 0.00541742 8.07976e-14)
(-2.17971e-09 0.00541976 8.07488e-14)
(-2.18407e-09 0.00542951 1.45502e-13)
(-2.18927e-09 0.00544023 1.48095e-13)
(-2.19453e-09 0.00545094 1.45598e-13)
(-2.19884e-09 0.00546069 8.08375e-14)
(-2.19705e-09 0.00546303 8.07078e-14)
(-2.20137e-09 0.00547277 1.4553e-13)
(-2.20661e-09 0.00548349 1.48058e-13)
(-2.21184e-09 0.00549421 1.45621e-13)
(-2.21616e-09 0.00550395 8.0806e-14)
(-2.21438e-09 0.00550629 8.07328e-14)
(-2.21868e-09 0.00551603 1.45496e-13)
(-2.22394e-09 0.00552675 1.48083e-13)
(-2.22914e-09 0.00553747 1.45581e-13)
(-2.2335e-09 0.00554721 8.08404e-14)
(-2.23167e-09 0.00554955 8.06863e-14)
(-2.23604e-09 0.0055593 1.45541e-13)
(-2.24121e-09 0.00557001 1.48017e-13)
(-2.24652e-09 0.00558073 1.45645e-13)
(-2.25075e-09 0.00559047 8.07532e-14)
(-2.24907e-09 0.00559281 8.07833e-14)
(-2.25326e-09 0.00560256 1.45417e-13)
(-2.25865e-09 0.00561327 1.48154e-13)
(-2.26369e-09 0.00562399 1.45468e-13)
(-2.26825e-09 0.00563374 8.09552e-14)
(-2.26617e-09 0.00563607 8.05339e-14)
(-2.27084e-09 0.00564582 1.45708e-13)
(-2.27566e-09 0.00565654 1.47793e-13)
(-2.28139e-09 0.00566725 1.45889e-13)
(-2.28512e-09 0.005677 8.04392e-14)
(-2.28403e-09 0.00567934 8.11508e-14)
(-2.28751e-09 0.00568908 1.44995e-13)
(-2.29377e-09 0.00569981 1.4935e-13)
(-2.29785e-09 0.00571061 1.49407e-13)
(-2.30411e-09 0.00572133 1.45132e-13)
(-2.30758e-09 0.00573108 8.1278e-14)
(-2.30649e-09 0.00573341 8.03664e-14)
(-2.31023e-09 0.00574316 1.45846e-13)
(-2.31595e-09 0.00575388 1.47835e-13)
(-2.32078e-09 0.00576459 1.45838e-13)
(-2.32544e-09 0.00577434 8.06517e-14)
(-2.32336e-09 0.00577668 8.08781e-14)
(-2.32792e-09 0.00578642 1.45413e-13)
(-2.33296e-09 0.00579714 1.48185e-13)
(-2.33835e-09 0.00580786 1.45536e-13)
(-2.34254e-09 0.0058176 8.08936e-14)
(-2.34086e-09 0.00581994 8.06718e-14)
(-2.34509e-09 0.00582968 1.45576e-13)
(-2.3504e-09 0.0058404 1.48041e-13)
(-2.35557e-09 0.00585112 1.45645e-13)
(-2.35995e-09 0.00586086 8.07965e-14)
(-2.35811e-09 0.0058632 8.07451e-14)
(-2.36247e-09 0.00587295 1.45509e-13)
(-2.36767e-09 0.00588366 1.48083e-13)
(-2.37294e-09 0.00589438 1.45602e-13)
(-2.37722e-09 0.00590412 8.08196e-14)
(-2.37547e-09 0.00590646 8.07251e-14)
(-2.37975e-09 0.00591621 1.45513e-13)
(-2.38502e-09 0.00592693 1.48077e-13)
(-2.39022e-09 0.00593764 1.45588e-13)
(-2.39458e-09 0.00594739 8.08329e-14)
(-2.39274e-09 0.00594973 8.06964e-14)
(-2.39712e-09 0.00595947 1.45544e-13)
(-2.40229e-09 0.00597019 1.48024e-13)
(-2.4076e-09 0.00598091 1.45643e-13)
(-2.41183e-09 0.00599065 8.07542e-14)
(-2.41015e-09 0.00599299 8.07867e-14)
(-2.41434e-09 0.00600273 1.45425e-13)
(-2.41973e-09 0.00601345 1.48157e-13)
(-2.42477e-09 0.00602417 1.4547e-13)
(-2.42933e-09 0.00603391 8.09532e-14)
(-2.42725e-09 0.00603625 8.05401e-14)
(-2.43192e-09 0.006046 1.45714e-13)
(-2.43674e-09 0.00605671 1.47798e-13)
(-2.44246e-09 0.00606743 1.4589e-13)
(-2.4462e-09 0.00607717 8.04387e-14)
(-2.44511e-09 0.00607951 8.11562e-14)
(-2.44858e-09 0.00608926 1.45003e-13)
(-2.45484e-09 0.00609998 1.49354e-13)
(-2.45892e-09 0.00611078 1.49408e-13)
(-2.46519e-09 0.00612151 1.4513e-13)
(-2.46866e-09 0.00613125 8.12757e-14)
(-2.46757e-09 0.00613359 8.03699e-14)
(-2.47131e-09 0.00614334 1.45851e-13)
(-2.47703e-09 0.00615405 1.47836e-13)
(-2.48186e-09 0.00616477 1.45837e-13)
(-2.48652e-09 0.00617451 8.06487e-14)
(-2.48444e-09 0.00617685 8.0883e-14)
(-2.489e-09 0.0061866 1.45416e-13)
(-2.49404e-09 0.00619732 1.48188e-13)
(-2.49943e-09 0.00620803 1.45534e-13)
(-2.50362e-09 0.00621778 8.08935e-14)
(-2.50194e-09 0.00622011 8.06736e-14)
(-2.50617e-09 0.00622986 1.45583e-13)
(-2.51148e-09 0.00624058 1.48039e-13)
(-2.51665e-09 0.00625129 1.45648e-13)
(-2.52102e-09 0.00626104 8.07897e-14)
(-2.51919e-09 0.00626338 8.07554e-14)
(-2.52355e-09 0.00627312 1.45507e-13)
(-2.52875e-09 0.00628384 1.48094e-13)
(-2.53401e-09 0.00629456 1.45591e-13)
(-2.53831e-09 0.0063043 8.08308e-14)
(-2.53653e-09 0.00630664 8.07141e-14)
(-2.54085e-09 0.00631638 1.45537e-13)
(-2.54608e-09 0.0063271 1.48057e-13)
(-2.55132e-09 0.00633782 1.45615e-13)
(-2.55564e-09 0.00634756 8.07992e-14)
(-2.55385e-09 0.0063499 8.074e-14)
(-2.55816e-09 0.00635965 1.45503e-13)
(-2.56341e-09 0.00637036 1.48084e-13)
(-2.56862e-09 0.00638108 1.45575e-13)
(-2.57298e-09 0.00639082 8.08348e-14)
(-2.57114e-09 0.00639316 8.06932e-14)
(-2.57552e-09 0.00640291 1.45549e-13)
(-2.58069e-09 0.00641363 1.48018e-13)
(-2.586e-09 0.00642434 1.45641e-13)
(-2.59023e-09 0.00643409 8.07474e-14)
(-2.58855e-09 0.00643643 8.07912e-14)
(-2.59274e-09 0.00644617 1.45424e-13)
(-2.59813e-09 0.00645689 1.48157e-13)
(-2.60317e-09 0.00646761 1.45464e-13)
(-2.60773e-09 0.00647735 8.09506e-14)
(-2.60565e-09 0.00647969 8.05414e-14)
(-2.61031e-09 0.00648943 1.45717e-13)
(-2.61514e-09 0.00650015 1.47796e-13)
(-2.62086e-09 0.00651087 1.45887e-13)
(-2.6246e-09 0.00652061 8.04342e-14)
(-2.62351e-09 0.00652295 8.11595e-14)
(-2.62698e-09 0.0065327 1.45004e-13)
(-2.63324e-09 0.00654342 1.49354e-13)
(-2.63732e-09 0.00655422 1.49403e-13)
(-2.64358e-09 0.00656494 1.45124e-13)
(-2.64706e-09 0.00657469 8.12696e-14)
(-2.64597e-09 0.00657703 8.03715e-14)
(-2.6497e-09 0.00658677 1.45849e-13)
(-2.65543e-09 0.00659749 1.47833e-13)
(-2.66025e-09 0.00660821 1.45829e-13)
(-2.66492e-09 0.00661795 8.06448e-14)
(-2.66284e-09 0.00662029 8.08826e-14)
(-2.6674e-09 0.00663004 1.45417e-13)
(-2.67244e-09 0.00664075 1.48183e-13)
(-2.67783e-09 0.00665147 1.45529e-13)
(-2.68202e-09 0.00666121 8.08864e-14)
(-2.68034e-09 0.00666355 8.06774e-14)
(-2.68457e-09 0.0066733 1.4558e-13)
(-2.68988e-09 0.00668402 1.4804e-13)