/*--------------------------------*- C++ -*----------------------------------*\
| =========                 |                                                 |
| \\      /  F ield         | OpenFOAM: The Open Source CFD Toolbox           |
|  \\    /   O peration     | Version:  2206                                  |
|   \\  /    A nd           | Website:  www.openfoam.com                      |
|    \\/     M anipulation  |                                                 |
\*---------------------------------------------------------------------------*/
FoamFile
{
    version     2.0;
    format      ascii;
    arch        "LSB;label=32;scalar=64";
    class       volScalarField;
    location    "100";
    object      p;
}
// * * * * * * * * * * * * * * * * * * * * * * * * * * * * * * * * * * * * * //

dimensions      [0 2 -2 0 0 0 0];

internalField   nonuniform List<scalar> 
50000
(
1.89265e-11
1.99806e-09
6.82624e-09
1.36657e-08
2.1855e-08
3.20737e-08
4.41408e-08
5.80904e-08
7.39406e-08
9.17305e-08
1.11437e-07
1.33073e-07
1.56638e-07
1.82143e-07
2.09582e-07
2.38961e-07
2.70278e-07
3.03538e-07
3.38738e-07
3.75883e-07
4.14968e-07
4.56e-07
4.98974e-07
5.43895e-07
5.90759e-07
6.3957e-07
6.90325e-07
7.43027e-07
7.97674e-07
8.54269e-07
9.1281e-07
9.73297e-07
1.03573e-06
1.10011e-06
1.16644e-06
1.23472e-06
1.30494e-06
1.37711e-06
1.45123e-06
1.52729e-06
1.60531e-06
1.68527e-06
1.76718e-06
1.85103e-06
1.93684e-06
2.02459e-06
2.11429e-06
2.20594e-06
2.29954e-06
2.39508e-06
2.49257e-06
2.59202e-06
2.6934e-06
2.79674e-06
2.90203e-06
3.00926e-06
3.11845e-06
3.22958e-06
3.34266e-06
3.45768e-06
3.57466e-06
3.69358e-06
3.81446e-06
3.93728e-06
4.06205e-06
4.18877e-06
4.31744e-06
4.44805e-06
4.58062e-06
4.71513e-06
4.85159e-06
4.99e-06
5.13036e-06
5.27267e-06
5.41693e-06
5.56313e-06
5.71128e-06
5.86139e-06
6.01344e-06
6.16744e-06
6.32339e-06
6.48128e-06
6.64113e-06
6.80292e-06
6.96667e-06
7.13236e-06
7.3e-06
7.46959e-06
7.64113e-06
7.81461e-06
7.99005e-06
8.16744e-06
8.34677e-06
8.52805e-06
8.71128e-06
8.89646e-06
9.08359e-06
9.27267e-06
9.4637e-06
9.65667e-06
9.8516e-06
1.00485e-05
1.02473e-05
1.04481e-05
1.06508e-05
1.08554e-05
1.10621e-05
1.12706e-05
1.14811e-05
1.16936e-05
1.1908e-05
1.21244e-05
1.23427e-05
1.2563e-05
1.27852e-05
1.30093e-05
1.32354e-05
1.34635e-05
1.36935e-05
1.39254e-05
1.41593e-05
1.43952e-05
1.4633e-05
1.48727e-05
1.51144e-05
1.53581e-05
1.56037e-05
1.58512e-05
1.61007e-05
1.63522e-05
1.66055e-05
1.68609e-05
1.71182e-05
1.73774e-05
1.76386e-05
1.79017e-05
1.81668e-05
1.84339e-05
1.87028e-05
1.89738e-05
1.92466e-05
1.95215e-05
1.97983e-05
2.0077e-05
2.03577e-05
2.06403e-05
2.09249e-05
2.12114e-05
2.14998e-05
2.17903e-05
2.20826e-05
2.2377e-05
2.26732e-05
2.29714e-05
2.32716e-05
2.35737e-05
2.38778e-05
2.41838e-05
2.44918e-05
2.48017e-05
2.51135e-05
2.54273e-05
2.57431e-05
2.60608e-05
2.63805e-05
2.67021e-05
2.70256e-05
2.73511e-05
2.76786e-05
2.8008e-05
2.83393e-05
2.86726e-05
2.90079e-05
2.9345e-05
2.96842e-05
3.00253e-05
3.03683e-05
3.07133e-05
3.10603e-05
3.14092e-05
3.176e-05
3.21128e-05
3.24675e-05
3.28242e-05
3.31828e-05
3.35434e-05
3.39059e-05
3.42704e-05
3.46369e-05
3.50052e-05
3.53756e-05
3.57478e-05
3.61221e-05
3.64982e-05
3.68764e-05
3.72564e-05
3.76385e-05
3.80224e-05
3.84084e-05
3.87962e-05
3.9186e-05
3.95778e-05
3.99715e-05
4.03672e-05
4.07648e-05
4.11644e-05
4.15659e-05
4.19693e-05
4.23748e-05
4.27821e-05
4.31914e-05
4.36027e-05
4.40159e-05
4.4431e-05
4.48481e-05
4.52672e-05
4.56882e-05
4.61112e-05
4.65361e-05
4.69629e-05
4.73917e-05
4.78224e-05
4.82551e-05
4.86898e-05
4.91264e-05
4.95649e-05
5.00054e-05
5.04479e-05
5.08923e-05
5.13386e-05
5.17869e-05
5.22371e-05
5.26893e-05
5.31434e-05
5.35995e-05
5.40576e-05
5.45175e-05
5.49795e-05
5.54433e-05
5.59092e-05
5.6377e-05
5.68467e-05
5.73184e-05
5.7792e-05
5.82676e-05
5.87451e-05
5.92246e-05
5.9706e-05
6.01893e-05
6.06747e-05
6.11619e-05
6.16512e-05
6.21423e-05
6.26354e-05
6.31305e-05
6.36275e-05
6.41265e-05
6.46274e-05
6.51302e-05
6.56351e-05
6.61418e-05
6.66505e-05
6.71612e-05
6.76738e-05
6.81883e-05
6.87048e-05
6.92233e-05
6.97437e-05
7.0266e-05
7.07903e-05
7.13166e-05
7.18448e-05
7.23749e-05
7.2907e-05
7.34411e-05
7.39771e-05
7.4515e-05
7.50549e-05
7.55967e-05
7.61405e-05
7.66863e-05
7.7234e-05
7.77836e-05
7.83352e-05
7.88887e-05
7.94442e-05
8.00016e-05
8.0561e-05
8.11224e-05
8.16856e-05
8.22509e-05
8.2818e-05
8.33872e-05
8.39582e-05
8.45313e-05
8.51062e-05
8.56832e-05
8.6262e-05
8.68429e-05
8.74256e-05
8.80103e-05
8.8597e-05
8.91856e-05
8.97762e-05
9.03687e-05
9.09632e-05
9.15596e-05
9.2158e-05
9.27583e-05
9.33605e-05
9.39647e-05
9.45709e-05
9.5179e-05
9.57891e-05
9.64011e-05
9.7015e-05
9.76309e-05
9.82488e-05
9.88686e-05
9.94903e-05
0.000100114
0.00010074
0.000101367
0.000101997
0.000102628
0.000103262
0.000103897
0.000104534
0.000105174
0.000105815
0.000106458
0.000107103
0.00010775
0.000108399
0.00010905
0.000109703
0.000110358
0.000111015
0.000111674
0.000112335
0.000112997
0.000113662
0.000114329
0.000114997
0.000115668
0.00011634
0.000117014
0.000117691
0.000118369
0.000119049
0.000119731
0.000120415
0.000121101
0.00012179
0.000122479
0.000123171
0.000123865
0.000124561
0.000125259
0.000125959
0.00012666
0.000127364
0.000128069
0.000128777
0.000129486
0.000130198
0.000130911
0.000131626
0.000132344
0.000133063
0.000133784
0.000134507
0.000135232
0.000135959
0.000136688
0.000137419
0.000138152
0.000138887
0.000139623
0.000140362
0.000141103
0.000141845
0.00014259
0.000143336
0.000144085
0.000144835
0.000145587
0.000146342
0.000147098
0.000147856
0.000148616
0.000149378
0.000150142
0.000150908
0.000151676
0.000152446
0.000153218
0.000153992
0.000154768
0.000155545
0.000156325
0.000157106
0.00015789
0.000158675
0.000159463
0.000160252
0.000161043
0.000161837
0.000162632
0.000163429
0.000164228
0.000165029
0.000165832
0.000166637
0.000167444
0.000168253
0.000169064
0.000169877
0.000170691
0.000171508
0.000172327
0.000173147
0.00017397
0.000174794
0.00017562
0.000176449
0.000177279
0.000178111
0.000178946
0.000179782
0.00018062
0.00018146
0.000182302
0.000183146
0.000183992
0.000184839
0.000185689
0.000186541
0.000187395
0.00018825
0.000189108
0.000189967
0.000190829
0.000191692
0.000192558
0.000193425
0.000194294
0.000195166
0.000196039
0.000196914
0.000197791
0.00019867
0.000199551
0.000200434
0.000201319
0.000202206
0.000203094
0.000203985
0.000204878
0.000205772
0.000206669
0.000207567
0.000208468
0.00020937
0.000210275
0.000211181
0.000212089
0.000212999
0.000213912
0.000214826
0.000215742
0.00021666
0.00021758
0.000218502
0.000219425
0.000220351
0.000221279
0.000222209
0.00022314
0.000224074
0.000225009
0.000225947
0.000226886
0.000227828
0.000228771
0.000229716
0.000230664
0.000231613
0.000232564
0.000233517
0.000234472
0.000235429
0.000236388
0.000237349
0.000238312
0.000239276
0.000240243
0.000241212
0.000242183
0.000243155
0.00024413
0.000245106
0.000246085
0.000247065
0.000248047
0.000249031
0.000250018
0.000251006
0.000251996
0.000252988
0.000253982
0.000254978
0.000255976
0.000256976
0.000257978
0.000258981
0.000259987
0.000260995
0.000262004
0.000263016
0.000264029
0.000265045
0.000266062
0.000267082
0.000268103
0.000269126
0.000270151
0.000271179
0.000272208
0.000273239
0.000274272
0.000275307
0.000276344
0.000277382
0.000278423
0.000279466
0.000280511
0.000281557
0.000282606
0.000283656
0.000284709
0.000285763
0.00028682
0.000287878
0.000288938
0.000290001
0.000291065
0.000292131
0.000293199
0.000294269
0.000295341
0.000296415
0.000297491
0.000298569
0.000299648
0.00030073
0.000301814
0.000302899
0.000303987
0.000305076
0.000306168
0.000307261
0.000308357
0.000309454
0.000310553
0.000311654
0.000312758
0.000313863
0.00031497
0.000316079
0.00031719
0.000318303
0.000319417
0.000320534
0.000321653
0.000322774
0.000323896
0.000325021
0.000326148
0.000327276
0.000328407
0.000329539
0.000330673
0.00033181
0.000332948
0.000334088
0.00033523
0.000336374
0.00033752
0.000338668
0.000339818
0.00034097
0.000342124
0.00034328
0.000344437
0.000345597
0.000346759
0.000347922
0.000349088
0.000350255
0.000351425
0.000352596
0.000353769
0.000354945
0.000356122
0.000357301
0.000358482
0.000359665
0.00036085
0.000362037
0.000363226
0.000364417
0.00036561
0.000366805
0.000368001
0.0003692
0.000370401
0.000371603
0.000372808
0.000374014
0.000375223
0.000376433
0.000377645
0.00037886
0.000380076
0.000381294
0.000382514
0.000383736
0.00038496
0.000386186
0.000387414
0.000388644
0.000389876
0.000391109
0.000392345
0.000393583
0.000394822
0.000396064
0.000397307
0.000398553
0.0003998
0.000401049
0.000402301
0.000403554
0.000404809
0.000406066
0.000407325
0.000408586
0.000409849
0.000411114
0.000412381
0.00041365
0.000414921
0.000416194
0.000417468
0.000418745
0.000420023
0.000421304
0.000422586
0.000423871
0.000425157
0.000426446
0.000427736
0.000429028
0.000430322
0.000431618
0.000432916
0.000434216
0.000435518
0.000436822
0.000438128
0.000439436
0.000440746
0.000442057
0.000443371
0.000444687
0.000446004
0.000447324
0.000448645
0.000449969
0.000451294
0.000452621
0.00045395
0.000455282
0.000456615
0.00045795
0.000459287
0.000460626
0.000461967
0.00046331
0.000464655
0.000466001
0.00046735
0.000468701
0.000470053
0.000471408
0.000472765
0.000474123
0.000475484
0.000476846
0.00047821
0.000479577
0.000480945
0.000482315
0.000483687
0.000485061
0.000486437
0.000487815
0.000489195
0.000490577
0.000491961
0.000493347
0.000494734
0.000496124
0.000497516
0.000498909
0.000500305
0.000501702
0.000503102
0.000504503
0.000505906
0.000507311
0.000508719
0.000510128
0.000511539
0.000512952
0.000514367
0.000515784
0.000517203
0.000518624
0.000520047
0.000521471
0.000522898
0.000524327
0.000525757
0.00052719
0.000528624
0.000530061
0.000531499
0.000532939
0.000534382
0.000535826
0.000537272
0.00053872
0.00054017
0.000541622
0.000543076
0.000544532
0.00054599
0.00054745
0.000548912
0.000550376
0.000551841
0.000553309
0.000554779
0.00055625
0.000557724
0.000559199
0.000560676
0.000562156
0.000563637
0.00056512
0.000566605
0.000568092
0.000569582
0.000571073
0.000572566
0.00057406
0.000575557
0.000577056
0.000578557
0.00058006
0.000581564
0.000583071
0.000584579
0.00058609
0.000587602
0.000589117
0.000590633
0.000592151
0.000593672
0.000595194
0.000596718
0.000598244
0.000599772
0.000601302
0.000602834
0.000604368
0.000605904
0.000607442
0.000608981
0.000610523
0.000612067
0.000613612
0.00061516
0.000616709
0.000618261
0.000619814
0.00062137
0.000622927
0.000624486
0.000626047
0.00062761
0.000629176
0.000630743
0.000632312
0.000633882
0.000635455
0.00063703
0.000638607
0.000640186
0.000641766
0.000643349
0.000644934
0.00064652
0.000648109
0.000649699
0.000651291
0.000652886
0.000654482
0.00065608
0.00065768
0.000659282
0.000660887
0.000662493
0.0006641
0.00066571
0.000667322
0.000668936
0.000670552
0.00067217
0.000673789
0.000675411
0.000677034
0.00067866
0.000680287
0.000681917
0.000683548
0.000685181
0.000686817
0.000688454
0.000690093
0.000691734
0.000693377
0.000695022
0.000696669
0.000698318
0.000699969
0.000701622
0.000703276
0.000704933
0.000706592
0.000708252
0.000709915
0.000711579
0.000713246
0.000714914
0.000716584
0.000718257
0.000719931
0.000721607
0.000723285
0.000724965
0.000726647
0.000728331
0.000730017
0.000731705
0.000733395
0.000735087
0.00073678
0.000738476
0.000740174
0.000741873
0.000743575
0.000745278
0.000746984
0.000748691
0.0007504
0.000752112
0.000753825
0.00075554
0.000757257
0.000758976
0.000760697
0.00076242
0.000764145
0.000765872
0.000767601
0.000769331
0.000771064
0.000772799
0.000774535
0.000776274
0.000778014
0.000779757
0.000781501
0.000783248
0.000784996
0.000786746
0.000788498
0.000790252
0.000792009
0.000793767
0.000795527
0.000797288
0.000799052
0.000800818
0.000802586
0.000804356
0.000806127
0.000807901
0.000809677
0.000811454
0.000813234
0.000815015
0.000816798
0.000818584
0.000820371
0.00082216
0.000823951
0.000825745
0.00082754
0.000829337
0.000831136
0.000832936
0.000834739
0.000836544
0.000838351
0.00084016
0.00084197
0.000843783
0.000845597
0.000847414
0.000849232
0.000851053
0.000852875
0.0008547
0.000856526
0.000858354
0.000860184
0.000862016
0.00086385
0.000865686
0.000867524
0.000869364
0.000871206
0.00087305
0.000874896
0.000876743
0.000878593
0.000880444
0.000882298
0.000884153
0.000886011
0.00088787
0.000889732
0.000891595
0.00089346
0.000895327
0.000897196
0.000899068
0.000900941
0.000902816
0.000904693
0.000906571
0.000908452
0.000910335
0.00091222
0.000914106
0.000915995
0.000917886
0.000919778
0.000921673
0.000923569
0.000925467
0.000927368
0.00092927
0.000931174
0.00093308
0.000934988
0.000936899
0.000938811
0.000940724
0.00094264
0.000944558
0.000946478
0.0009484
0.000950324
0.000952249
0.000954177
0.000956106
0.000958038
0.000959971
0.000961907
0.000963844
0.000965783
0.000967725
0.000969668
0.000971613
0.00097356
0.000975509
0.00097746
0.000979413
0.000981368
0.000983325
0.000985284
0.000987244
0.000989207
0.000991172
0.000993138
0.000995107
0.000997077
0.00099905
0.00100102
0.001003
0.00100498
0.00100696
0.00100894
0.00101093
0.00101291
0.0010149
0.00101689
0.00101888
0.00102088
0.00102287
0.00102487
0.00102687
0.00102887
0.00103087
0.00103288
0.00103489
0.0010369
0.00103891
0.00104092
0.00104294
0.00104495
0.00104697
0.00104899
0.00105102
0.00105304
0.00105507
0.0010571
0.00105913
0.00106116
0.0010632
0.00106523
0.00106727
0.00106931
0.00107136
0.0010734
0.00107545
0.00107749
0.00107955
0.0010816
0.00108365
0.00108571
0.00108777
0.00108983
0.00109189
0.00109395
0.00109602
0.00109809
0.00110016
0.00110223
0.0011043
0.00110638
0.00110846
0.00111053
0.00111262
0.0011147
0.00111679
0.00111887
0.00112096
0.00112305
0.00112515
0.00112724
0.00112934
0.00113144
0.00113354
0.00113564
0.00113775
0.00113985
0.00114196
0.00114407
0.00114619
0.0011483
0.00115042
0.00115254
0.00115466
0.00115678
0.0011589
0.00116103
0.00116316
0.00116529
0.00116742
0.00116956
0.00117169
0.00117383
0.00117597
0.00117811
0.00118026
0.0011824
0.00118455
0.0011867
0.00118885
0.00119101
0.00119316
0.00119532
0.00119748
0.00119964
0.0012018
0.00120397
0.00120614
0.0012083
0.00121048
0.00121265
0.00121482
0.001217
0.00121918
0.00122136
0.00122354
0.00122573
0.00122792
0.0012301
0.0012323
0.00123449
0.00123668
0.00123888
0.00124108
0.00124328
0.00124548
0.00124769
0.00124989
0.0012521
0.00125431
0.00125652
0.00125874
0.00126095
0.00126317
0.00126539
0.00126761
0.00126984
0.00127206
0.00127429
0.00127652
0.00127875
0.00128098
0.00128322
0.00128546
0.0012877
0.00128994
0.00129218
0.00129443
0.00129667
0.00129892
0.00130117
0.00130343
0.00130568
0.00130794
0.0013102
0.00131246
0.00131472
0.00131699
0.00131925
0.00132152
0.00132379
0.00132607
0.00132834
0.00133062
0.0013329
0.00133518
0.00133746
0.00133974
0.00134203
0.00134432
0.00134661
0.0013489
0.00135119
0.00135349
0.00135579
0.00135809
0.00136039
0.00136269
0.001365
0.00136731
0.00136962
0.00137193
0.00137424
0.00137656
0.00137887
0.00138119
0.00138351
0.00138584
0.00138816
0.00139049
0.00139282
0.00139515
0.00139748
0.00139982
0.00140215
0.00140449
0.00140683
0.00140918
0.00141152
0.00141387
0.00141622
0.00141857
0.00142092
0.00142327
0.00142563
0.00142799
0.00143035
0.00143271
0.00143508
0.00143744
0.00143981
0.00144218
0.00144455
0.00144693
0.0014493
0.00145168
0.00145406
0.00145644
0.00145883
0.00146121
0.0014636
0.00146599
0.00146838
0.00147077
0.00147317
0.00147557
0.00147796
0.00148037
0.00148277
0.00148517
0.00148758
0.00148999
0.0014924
0.00149481
0.00149723
0.00149965
0.00150206
0.00150449
0.00150691
0.00150933
0.00151176
0.00151419
0.00151662
0.00151905
0.00152148
0.00152392
0.00152636
0.0015288
0.00153124
0.00153369
0.00153613
0.00153858
0.00154103
0.00154348
0.00154594
0.00154839
0.00155085
0.00155331
0.00155577
0.00155823
0.0015607
0.00156317
0.00156564
0.00156811
0.00157058
0.00157306
0.00157553
0.00157801
0.00158049
0.00158298
0.00158546
0.00158795
0.00159044
0.00159293
0.00159542
0.00159792
0.00160041
0.00160291
0.00160541
0.00160792
0.00161042
0.00161293
0.00161543
0.00161795
0.00162046
0.00162297
0.00162549
0.00162801
0.00163053
0.00163305
0.00163557
0.0016381
0.00164063
0.00164316
0.00164569
0.00164822
0.00165076
0.00165329
0.00165583
0.00165838
0.00166092
0.00166347
0.00166601
0.00166856
0.00167111
0.00167367
0.00167622
0.00167878
0.00168134
0.0016839
0.00168646
0.00168903
0.00169159
0.00169416
0.00169673
0.00169931
0.00170188
0.00170446
0.00170704
0.00170962
0.0017122
0.00171478
0.00171737
0.00171996
0.00172255
0.00172514
0.00172773
0.00173033
0.00173293
0.00173553
0.00173813
0.00174073
0.00174334
0.00174595
0.00174856
0.00175117
0.00175378
0.0017564
0.00175902
0.00176164
0.00176426
0.00176688
0.00176951
0.00177213
0.00177476
0.00177739
0.00178003
0.00178266
0.0017853
0.00178794
0.00179058
0.00179322
0.00179587
0.00179851
0.00180116
0.00180381
0.00180647
0.00180912
0.00181178
0.00181444
0.0018171
0.00181976
0.00182242
0.00182509
0.00182776
0.00183043
0.0018331
0.00183577
0.00183845
0.00184113
0.00184381
0.00184649
0.00184917
0.00185186
0.00185455
0.00185724
0.00185993
0.00186262
0.00186532
0.00186802
0.00187071
0.00187342
0.00187612
0.00187882
0.00188153
0.00188424
0.00188695
0.00188967
0.00189238
0.0018951
0.00189782
0.00190054
0.00190326
0.00190598
0.00190871
0.00191144
0.00191417
0.0019169
0.00191964
0.00192237
0.00192511
0.00192785
0.0019306
0.00193334
0.00193609
0.00193883
0.00194158
0.00194434
0.00194709
0.00194985
0.0019526
0.00195536
0.00195813
0.00196089
0.00196365
0.00196642
0.00196919
0.00197196
0.00197474
0.00197751
0.00198029
0.00198307
0.00198585
0.00198863
0.00199142
0.00199421
0.001997
0.00199979
0.00200258
0.00200537
0.00200817
0.00201097
0.00201377
0.00201657
0.00201938
0.00202218
0.00202499
0.0020278
0.00203062
0.00203343
0.00203625
0.00203907
0.00204189
0.00204471
0.00204753
0.00205036
0.00205319
0.00205602
0.00205885
0.00206168
0.00206452
0.00206736
0.0020702
0.00207304
0.00207588
0.00207873
0.00208157
0.00208442
0.00208727
0.00209013
0.00209298
0.00209584
0.0020987
0.00210156
0.00210442
0.00210729
0.00211016
0.00211303
0.0021159
0.00211877
0.00212164
0.00212452
0.0021274
0.00213028
0.00213316
0.00213605
0.00213893
0.00214182
0.00214471
0.00214761
0.0021505
0.0021534
0.00215629
0.00215919
0.0021621
0.002165
0.00216791
0.00217081
0.00217372
0.00217664
0.00217955
0.00218247
0.00218538
0.0021883
0.00219123
0.00219415
0.00219707
0.0022
0.00220293
0.00220586
0.0022088
0.00221173
0.00221467
0.00221761
0.00222055
0.00222349
0.00222644
0.00222938
0.00223233
0.00223528
0.00223824
0.00224119
0.00224415
0.00224711
0.00225007
0.00225303
0.00225599
0.00225896
0.00226193
0.0022649
0.00226787
0.00227085
0.00227382
0.0022768
0.00227978
0.00228276
0.00228575
0.00228873
0.00229172
0.00229471
0.0022977
0.00230069
0.00230369
0.00230669
0.00230969
0.00231269
0.00231569
0.0023187
0.00232171
0.00232471
0.00232773
0.00233074
0.00233375
0.00233677
0.00233979
0.00234281
0.00234583
0.00234886
0.00235189
0.00235492
0.00235795
0.00236098
0.00236401
0.00236705
0.00237009
0.00237313
0.00237617
0.00237922
0.00238226
0.00238531
0.00238836
0.00239141
0.00239447
0.00239752
0.00240058
0.00240364
0.0024067
0.00240977
0.00241283
0.0024159
0.00241897
0.00242204
0.00242512
0.00242819
0.00243127
0.00243435
0.00243743
0.00244051
0.0024436
0.00244669
0.00244978
0.00245287
0.00245596
0.00245905
0.00246215
0.00246525
0.00246835
0.00247145
0.00247456
0.00247767
0.00248077
0.00248389
0.002487
0.00249011
0.00249323
0.00249635
0.00249947
0.00250259
0.00250571
0.00250884
0.00251197
0.0025151
0.00251823
0.00252137
0.0025245
0.00252764
0.00253078
0.00253392
0.00253707
0.00254021
0.00254336
0.00254651
0.00254966
0.00255281
0.00255597
0.00255913
0.00256229
0.00256545
0.00256861
0.00257178
0.00257494
0.00257811
0.00258128
0.00258446
0.00258763
0.00259081
0.00259399
0.00259717
0.00260035
0.00260354
0.00260672
0.00260991
0.0026131
0.00261629
0.00261949
0.00262268
0.00262588
0.00262908
0.00263229
0.00263549
0.0026387
0.0026419
0.00264511
0.00264833
0.00265154
0.00265476
0.00265797
0.00266119
0.00266442
0.00266764
0.00267087
0.00267409
0.00267732
0.00268055
0.00268379
0.00268702
0.00269026
0.0026935
0.00269674
0.00269998
0.00270323
0.00270648
0.00270973
0.00271298
0.00271623
0.00271948
0.00272274
0.002726
0.00272926
0.00273252
0.00273579
0.00273905
0.00274232
0.00274559
0.00274887
0.00275214
0.00275542
0.00275869
0.00276198
0.00276526
0.00276854
0.00277183
0.00277512
0.00277841
0.0027817
0.00278499
0.00278829
0.00279158
0.00279488
0.00279819
0.00280149
0.0028048
0.0028081
0.00281141
0.00281472
0.00281804
0.00282135
0.00282467
0.00282799
0.00283131
0.00283463
0.00283796
0.00284129
0.00284461
0.00284795
0.00285128
0.00285461
0.00285795
0.00286129
0.00286463
0.00286797
0.00287132
0.00287466
0.00287801
0.00288136
0.00288471
0.00288807
0.00289142
0.00289478
0.00289814
0.00290151
0.00290487
0.00290824
0.0029116
0.00291497
0.00291834
0.00292172
0.00292509
0.00292847
0.00293185
0.00293523
0.00293862
0.002942
0.00294539
0.00294878
0.00295217
0.00295556
0.00295896
0.00296236
0.00296576
0.00296916
0.00297256
0.00297596
0.00297937
0.00298278
0.00298619
0.0029896
0.00299302
0.00299644
0.00299985
0.00300327
0.0030067
0.00301012
0.00301355
0.00301698
0.00302041
0.00302384
0.00302727
0.00303071
0.00303415
0.00303759
0.00304103
0.00304447
0.00304792
0.00305137
0.00305482
0.00305827
0.00306172
0.00306518
0.00306864
0.0030721
0.00307556
0.00307902
0.00308249
0.00308595
0.00308942
0.00309289
0.00309637
0.00309984
0.00310332
0.0031068
0.00311028
0.00311376
0.00311725
0.00312073
0.00312422
0.00312771
0.00313121
0.0031347
0.0031382
0.0031417
0.0031452
0.0031487
0.0031522
0.00315571
0.00315922
0.00316273
0.00316624
0.00316975
0.00317327
0.00317679
0.00318031
0.00318383
0.00318735
0.00319088
0.00319441
0.00319794
0.00320147
0.003205
0.00320854
0.00321208
0.00321561
0.00321916
0.0032227
0.00322624
0.00322979
0.00323334
0.00323689
0.00324045
0.003244
0.00324756
0.00325112
0.00325468
0.00325824
0.00326181
0.00326537
0.00326894
0.00327251
0.00327608
0.00327966
0.00328323
0.00328681
0.00329039
0.00329398
0.00329756
0.00330115
0.00330473
0.00330832
0.00331192
0.00331551
0.00331911
0.0033227
0.0033263
0.00332991
0.00333351
0.00333712
0.00334072
0.00334433
0.00334795
0.00335156
0.00335517
0.00335879
0.00336241
0.00336603
0.00336966
0.00337328
0.00337691
0.00338054
0.00338417
0.0033878
0.00339144
0.00339507
0.00339871
0.00340235
0.003406
0.00340964
0.00341329
0.00341694
0.00342059
0.00342424
0.00342789
0.00343155
0.00343521
0.00343887
0.00344253
0.00344619
0.00344986
0.00345353
0.0034572
0.00346087
0.00346454
0.00346822
0.0034719
0.00347558
0.00347926
0.00348294
0.00348663
0.00349032
0.00349401
0.0034977
0.00350139
0.00350509
0.00350878
0.00351248
0.00351618
0.00351989
0.00352359
0.0035273
0.00353101
0.00353472
0.00353843
0.00354215
0.00354586
0.00354958
0.0035533
0.00355703
0.00356075
0.00356448
0.00356821
0.00357194
0.00357567
0.0035794
0.00358314
0.00358688
0.00359062
0.00359436
0.0035981
0.00360185
0.0036056
0.00360935
0.0036131
0.00361685
0.00362061
0.00362437
0.00362813
0.00363189
0.00363565
0.00363942
0.00364319
0.00364696
0.00365073
0.0036545
0.00365828
0.00366205
0.00366583
0.00366961
0.0036734
0.00367718
0.00368097
0.00368476
0.00368855
0.00369234
0.00369614
0.00369993
0.00370373
0.00370753
0.00371133
0.00371514
0.00371895
0.00372275
0.00372656
0.00373038
0.00373419
0.00373801
0.00374183
0.00374565
0.00374947
0.00375329
0.00375712
0.00376095
0.00376478
0.00376861
0.00377244
0.00377628
0.00378011
0.00378395
0.0037878
0.00379164
0.00379548
0.00379933
0.00380318
0.00380703
0.00381089
0.00381474
0.0038186
0.00382246
0.00382632
0.00383018
0.00383405
0.00383791
0.00384178
0.00384565
0.00384953
0.0038534
0.00385728
0.00386116
0.00386504
0.00386892
0.0038728
0.00387669
0.00388058
0.00388447
0.00388836
0.00389225
0.00389615
0.00390005
0.00390395
0.00390785
0.00391175
0.00391566
0.00391957
0.00392348
0.00392739
0.0039313
0.00393522
0.00393914
0.00394306
0.00394698
0.0039509
0.00395483
0.00395875
0.00396268
0.00396661
0.00397055
0.00397448
0.00397842
0.00398236
0.0039863
0.00399024
0.00399419
0.00399813
0.00400208
0.00400603
0.00400999
0.00401394
0.0040179
0.00402186
0.00402582
0.00402978
0.00403374
0.00403771
0.00404168
0.00404565
0.00404962
0.00405359
0.00405757
0.00406155
0.00406553
0.00406951
0.00407349
0.00407748
0.00408147
0.00408546
0.00408945
0.00409344
0.00409744
0.00410144
0.00410543
0.00410944
0.00411344
0.00411744
0.00412145
0.00412546
0.00412947
0.00413349
0.0041375
0.00414152
0.00414554
0.00414956
0.00415358
0.0041576
0.00416163
0.00416566
0.00416969
0.00417372
0.00417776
0.00418179
0.00418583
0.00418987
0.00419392
0.00419796
0.00420201
0.00420605
0.0042101
0.00421416
0.00421821
0.00422227
0.00422632
0.00423038
0.00423445
0.00423851
0.00424258
0.00424664
0.00425071
0.00425478
0.00425886
0.00426293
0.00426701
0.00427109
0.00427517
0.00427925
0.00428334
0.00428743
0.00429152
0.00429561
0.0042997
0.00430379
0.00430789
0.00431199
0.00431609
0.00432019
0.0043243
0.00432841
0.00433251
0.00433662
0.00434074
0.00434485
0.00434897
0.00435309
0.00435721
0.00436133
0.00436545
0.00436958
0.00437371
0.00437784
0.00438197
0.0043861
0.00439024
0.00439438
0.00439852
0.00440266
0.0044068
0.00441095
0.00441509
0.00441924
0.0044234
0.00442755
0.0044317
0.00443586
0.00444002
0.00444418
0.00444835
0.00445251
0.00445668
0.00446085
0.00446502
0.00446919
0.00447337
0.00447754
0.00448172
0.0044859
0.00449008
0.00449427
0.00449846
0.00450264
0.00450683
0.00451103
0.00451522
0.00451942
0.00452362
0.00452782
0.00453202
0.00453622
0.00454043
0.00454464
0.00454885
0.00455306
0.00455727
0.00456149
0.00456571
0.00456992
0.00457415
0.00457837
0.0045826
0.00458682
0.00459105
0.00459528
0.00459952
0.00460375
0.00460799
0.00461223
0.00461647
0.00462071
0.00462496
0.0046292
0.00463345
0.0046377
0.00464196
0.00464621
0.00465047
0.00465473
0.00465899
0.00466325
0.00466752
0.00467178
0.00467605
0.00468032
0.00468459
0.00468887
0.00469314
0.00469742
0.0047017
0.00470598
0.00471027
0.00471455
0.00471884
0.00472313
0.00472742
0.00473172
0.00473601
0.00474031
0.00474461
0.00474891
0.00475321
0.00475752
0.00476183
0.00476614
0.00477045
0.00477476
0.00477908
0.00478339
0.00478771
0.00479203
0.00479636
0.00480068
0.00480501
0.00480934
0.00481367
0.004818
0.00482234
0.00482667
0.00483101
0.00483535
0.00483969
0.00484404
0.00484838
0.00485273
0.00485708
0.00486144
0.00486579
0.00487015
0.0048745
0.00487886
0.00488323
0.00488759
0.00489196
0.00489632
0.00490069
0.00490506
0.00490944
0.00491381
0.00491819
0.00492257
0.00492695
0.00493134
0.00493572
0.00494011
0.0049445
0.00494889
0.00495328
0.00495768
0.00496207
0.00496647
0.00497087
0.00497528
0.00497968
0.00498409
0.0049885
0.00499291
0.00499732
0.00500174
0.00500615
0.00501057
0.00501499
0.00501941
0.00502384
0.00502826
0.00503269
0.00503712
0.00504155
0.00504599
0.00505042
0.00505486
0.0050593
0.00506374
0.00506819
0.00507263
0.00507708
0.00508153
0.00508598
0.00509044
0.00509489
0.00509935
0.00510381
0.00510827
0.00511273
0.0051172
0.00512167
0.00512613
0.00513061
0.00513508
0.00513955
0.00514403
0.00514851
0.00515299
0.00515747
0.00516196
0.00516644
0.00517093
0.00517542
0.00517992
0.00518441
0.00518891
0.00519341
0.00519791
0.00520241
0.00520691
0.00521142
0.00521593
0.00522044
0.00522495
0.00522946
0.00523398
0.0052385
0.00524302
0.00524754
0.00525206
0.00525659
0.00526112
0.00526565
0.00527018
0.00527471
0.00527925
0.00528378
0.00528832
0.00529286
0.00529741
0.00530195
0.0053065
0.00531105
0.0053156
0.00532015
0.00532471
0.00532926
0.00533382
0.00533838
0.00534295
0.00534751
0.00535208
0.00535665
0.00536122
0.00536579
0.00537036
0.00537494
0.00537952
0.0053841
0.00538868
0.00539326
0.00539785
0.00540244
0.00540703
0.00541162
0.00541621
0.00542081
0.00542541
0.00543001
0.00543461
0.00543921
0.00544382
0.00544843
0.00545304
0.00545765
0.00546226
0.00546688
0.00547149
0.00547611
0.00548073
0.00548536
0.00548998
0.00549461
0.00549924
0.00550387
0.0055085
0.00551314
0.00551777
0.00552241
0.00552705
0.0055317
0.00553634
0.00554099
0.00554564
0.00555029
0.00555494
0.00555959
0.00556425
0.00556891
0.00557357
0.00557823
0.00558289
0.00558756
0.00559223
0.0055969
0.00560157
0.00560624
0.00561092
0.0056156
0.00562028
0.00562496
0.00562964
0.00563433
0.00563901
0.0056437
0.00564839
0.00565309
0.00565778
0.00566248
0.00566718
0.00567188
0.00567658
0.00568129
0.005686
0.0056907
0.00569542
0.00570013
0.00570484
0.00570956
0.00571428
0.005719
0.00572372
0.00572845
0.00573317
0.0057379
0.00574263
0.00574736
0.0057521
0.00575683
0.00576157
0.00576631
0.00577105
0.0057758
0.00578054
0.00578529
0.00579004
0.00579479
0.00579955
0.0058043
0.00580906
0.00581382
0.00581858
0.00582334
0.00582811
0.00583288
0.00583765
0.00584242
0.00584719
0.00585197
0.00585674
0.00586152
0.0058663
0.00587109
0.00587587
0.00588066
0.00588545
0.00589024
0.00589503
0.00589982
0.00590462
0.00590942
0.00591422
0.00591902
0.00592383
0.00592863
0.00593344
0.00593825
0.00594306
0.00594788
0.00595269
0.00595751
0.00596233
0.00596715
0.00597198
0.0059768
0.00598163
0.00598646
0.00599129
0.00599613
0.00600096
0.0060058
0.00601064
0.00601548
0.00602032
0.00602517
0.00603002
0.00603487
0.00603972
0.00604457
0.00604943
0.00605428
0.00605914
0.006064
0.00606887
0.00607373
0.0060786
0.00608347
0.00608834
0.00609321
0.00609808
0.00610296
0.00610784
0.00611272
0.0061176
0.00612249
0.00612737
0.00613226
0.00613715
0.00614204
0.00614694
0.00615183
0.00615673
0.00616163
0.00616653
0.00617144
0.00617634
0.00618125
0.00618616
0.00619107
0.00619598
0.0062009
0.00620582
0.00621074
0.00621566
0.00622058
0.00622551
0.00623043
0.00623536
0.00624029
0.00624523
0.00625016
0.0062551
0.00626004
0.00626498
0.00626992
0.00627487
0.00627981
0.00628476
0.00628971
0.00629466
0.00629962
0.00630457
0.00630953
0.00631449
0.00631946
0.00632442
0.00632939
0.00633435
0.00633932
0.0063443
0.00634927
0.00635425
0.00635922
0.0063642
0.00636919
0.00637417
0.00637915
0.00638414
0.00638913
0.00639412
0.00639912
0.00640411
0.00640911
0.00641411
0.00641911
0.00642411
0.00642912
0.00643413
0.00643913
0.00644415
0.00644916
0.00645417
0.00645919
0.00646421
0.00646923
0.00647425
0.00647928
0.0064843
0.00648933