/*--------------------------------*- C++ -*----------------------------------*\
| =========                 |                                                 |
| \\      /  F ield         | OpenFOAM: The Open Source CFD Toolbox           |
|  \\    /   O peration     | Version:  2206                                  |
|   \\  /    A nd           | Website:  www.openfoam.com                      |
|    \\/     M anipulation  |                                                 |
\*---------------------------------------------------------------------------*/
FoamFile
{
    version     2.0;
    format      ascii;
    arch        "LSB;label=32;scalar=64";
    class       surfaceScalarField;
    location    "100";
    object      phi;
}
// * * * * * * * * * * * * * * * * * * * * * * * * * * * * * * * * * * * * * //

dimensions      [0 3 -1 0 0 0 0];

oriented        oriented;

internalField   nonuniform List<scalar> 
94990
(
-2.63281e-25
5.81127e-25
-9.01285e-25
6.43495e-25
-1.91853e-24
9.94761e-25
-3.29161e-24
1.38803e-24
-5.12317e-24
1.80359e-24
-7.31439e-24
2.20895e-24
-9.92636e-24
2.59161e-24
-1.29269e-23
3.01643e-24
-1.63435e-23
3.40181e-24
-2.01435e-23
3.8135e-24
-2.43573e-23
4.20229e-24
-2.89618e-23
4.61594e-24
-3.39774e-23
5.00626e-24
-3.93835e-23
5.41584e-24
-4.51994e-23
5.80804e-24
-5.14085e-23
6.21747e-24
-5.80257e-23
6.6105e-24
-6.50366e-23
7.01817e-24
-7.24552e-23
7.41294e-24
-8.02682e-23
7.81929e-24
-8.84881e-23
8.21512e-24
-9.71031e-23
8.62057e-24
-1.06124e-22
9.01707e-24
-1.15541e-22
9.42205e-24
-1.25364e-22
9.81897e-24
-1.35583e-22
1.02235e-23
-1.46207e-22
1.06209e-23
-1.57228e-22
1.1025e-23
-1.68654e-22
1.14227e-23
-1.80477e-22
1.18265e-23
-1.92704e-22
1.22245e-23
-2.05329e-22
1.26281e-23
-2.18357e-22
1.30263e-23
-2.31784e-22
1.34296e-23
-2.45614e-22
1.38281e-23
-2.59843e-22
1.42312e-23
-2.74475e-22
1.46299e-23
-2.89505e-22
1.50328e-23
-3.04938e-22
1.54316e-23
-3.2077e-22
1.58344e-23
-3.37005e-22
1.62334e-23
-3.53639e-22
1.66361e-23
-3.70676e-22
1.70352e-23
-3.88112e-22
1.74377e-23
-4.0595e-22
1.78369e-23
-4.24187e-22
1.82393e-23
-4.42827e-22
1.86386e-23
-4.61867e-22
1.90409e-23
-4.81308e-22
1.94404e-23
-5.01149e-22
1.98426e-23
-5.21392e-22
2.02421e-23
-5.42035e-22
2.06442e-23
-5.6308e-22
2.10438e-23
-5.84524e-22
2.14459e-23
-6.06371e-22
2.18455e-23
-6.28617e-22
2.22475e-23
-6.51265e-22
2.26473e-23
-6.74313e-22
2.30492e-23
-6.97763e-22
2.3449e-23
-7.21613e-22
2.38509e-23
-7.45864e-22
2.42507e-23
-7.70516e-22
2.46525e-23
-7.95569e-22
2.50524e-23
-8.21022e-22
2.54542e-23
-8.46877e-22
2.58541e-23
-8.73132e-22
2.62559e-23
-8.99788e-22
2.66558e-23
-9.26845e-22
2.70575e-23
-9.54303e-22
2.74575e-23
-9.82161e-22
2.78592e-23
-1.01042e-21
2.82592e-23
-1.03908e-21
2.86609e-23
-1.06814e-21
2.90609e-23
-1.0976e-21
2.94625e-23
-1.12747e-21
2.98626e-23
-1.15773e-21
3.02642e-23
-1.1884e-21
3.06644e-23
-1.21946e-21
3.10659e-23
-1.25093e-21
3.14661e-23
-1.28279e-21
3.18676e-23
-1.31506e-21
3.22678e-23
-1.34773e-21
3.26692e-23
-1.3808e-21
3.30695e-23
-1.41427e-21
3.34709e-23
-1.44814e-21
3.38712e-23
-1.48241e-21
3.42726e-23
-1.51709e-21
3.46729e-23
-1.55216e-21
3.50743e-23
-1.58764e-21
3.54746e-23
-1.62351e-21
3.5876e-23
-1.65979e-21
3.62763e-23
-1.69647e-21
3.66776e-23
-1.73354e-21
3.7078e-23
-1.77102e-21
3.74793e-23
-1.8089e-21
3.78797e-23
-1.84718e-21
3.8281e-23
-1.88586e-21
3.86814e-23
-1.92495e-21
3.90827e-23
-1.96443e-21
3.94831e-23
-2.00431e-21
3.98844e-23
-2.0446e-21
4.02848e-23
-2.08528e-21
4.06861e-23
-2.12637e-21
4.10864e-23
-2.16786e-21
4.14877e-23
-2.20975e-21
4.18881e-23
-2.25204e-21
4.22894e-23
-2.29473e-21
4.26898e-23
-2.33782e-21
4.30911e-23
-2.38131e-21
4.34915e-23
-2.4252e-21
4.38928e-23
-2.46949e-21
4.42932e-23
-2.51419e-21
4.46945e-23
-2.55928e-21
4.50949e-23
-2.60478e-21
4.54962e-23
-2.65068e-21
4.58966e-23
-2.69697e-21
4.62978e-23
-2.74367e-21
4.66983e-23
-2.79077e-21
4.70995e-23
-2.83827e-21
4.75e-23
-2.88617e-21
4.79012e-23
-2.93447e-21
4.83017e-23
-2.98318e-21
4.87029e-23
-3.03228e-21
4.91034e-23
-3.08179e-21
4.95046e-23
-3.13169e-21
4.99051e-23
-3.182e-21
5.03063e-23
-3.2327e-21
5.07068e-23
-3.28381e-21
5.1108e-23
-3.33532e-21
5.15085e-23
-3.38723e-21
5.19096e-23
-3.43954e-21
5.23102e-23
-3.49225e-21
5.27113e-23
-3.54536e-21
5.31119e-23
-3.59888e-21
5.3513e-23
-3.65279e-21
5.39136e-23
-3.7071e-21
5.43147e-23
-3.76182e-21
5.47153e-23
-3.81693e-21
5.51164e-23
-3.87245e-21
5.5517e-23
-3.92837e-21
5.59181e-23
-3.98469e-21
5.63187e-23
-4.04141e-21
5.67198e-23
-4.09853e-21
5.71203e-23
-4.15605e-21
5.75215e-23
-4.21397e-21
5.7922e-23
-4.27229e-21
5.83231e-23
-4.33102e-21
5.87237e-23
-4.39014e-21
5.91248e-23
-4.44967e-21
5.95254e-23
-4.5096e-21
5.99265e-23
-4.56992e-21
6.03271e-23
-4.63065e-21
6.07282e-23
-4.69178e-21
6.11288e-23
-4.75331e-21
6.15299e-23
-4.81524e-21
6.19305e-23
-4.87757e-21
6.23316e-23
-4.9403e-21
6.27322e-23
-5.00344e-21
6.31333e-23
-5.06697e-21
6.35339e-23
-5.1309e-21
6.3935e-23
-5.19524e-21
6.43356e-23
-5.25998e-21
6.47366e-23
-5.32511e-21
6.51373e-23
-5.39065e-21
6.55383e-23
-5.45659e-21
6.5939e-23
-5.52293e-21
6.634e-23
-5.58967e-21
6.67407e-23
-5.65681e-21
6.71417e-23
-5.72436e-21
6.75424e-23
-5.7923e-21
6.79434e-23
-5.86064e-21
6.8344e-23
-5.92939e-21
6.87451e-23
-5.99853e-21
6.91457e-23
-6.06808e-21
6.95468e-23
-6.13803e-21
6.99474e-23
-6.20838e-21
7.03485e-23
-6.27913e-21
7.07491e-23
-6.35028e-21
7.11502e-23
-6.42183e-21
7.15508e-23
-6.49378e-21
7.19518e-23
-6.56613e-21
7.23525e-23
-6.63888e-21
7.27535e-23
-6.71204e-21
7.31542e-23
-6.78559e-21
7.35552e-23
-6.85955e-21
7.39559e-23
-6.93391e-21
7.43569e-23
-7.00866e-21
7.47576e-23
-7.08382e-21
7.51586e-23
-7.15938e-21
7.55593e-23
-7.23534e-21
7.59603e-23
-7.3117e-21
7.6361e-23
-7.38846e-21
7.6762e-23
-7.46563e-21
7.71627e-23
-7.54319e-21
7.75637e-23
-7.62116e-21
7.79644e-23
-7.69952e-21
7.83654e-23
-7.77829e-21
7.8766e-23
-7.85745e-21
7.9167e-23
-7.93702e-21
7.95677e-23
-8.01699e-21
7.99687e-23
-8.09736e-21
8.03694e-23
-8.17813e-21
8.07704e-23
-8.2593e-21
8.11711e-23
-8.34087e-21
8.15721e-23
-8.42285e-21
8.19728e-23
-8.50522e-21
8.23738e-23
-8.58799e-21
8.27745e-23
-8.67117e-21
8.31755e-23
-8.75475e-21
8.35762e-23
-8.83872e-21
8.39772e-23
-8.9231e-21
8.43779e-23
-9.00788e-21
8.47789e-23
-9.09306e-21
8.51796e-23
-9.17864e-21
8.55806e-23
-9.26462e-21
8.59813e-23
-9.351e-21
8.63823e-23
-9.43779e-21
8.6783e-23
-9.52497e-21
8.71839e-23
-9.61255e-21
8.75847e-23
-9.70054e-21
8.79856e-23
-9.78893e-21
8.83863e-23
-9.87771e-21
8.87873e-23
-9.9669e-21
8.9188e-23
-1.00565e-20
8.9589e-23
-1.01465e-20
8.99897e-23
-1.02369e-20
9.03907e-23
-1.03277e-20
9.07914e-23
-1.04189e-20
9.11924e-23
-1.05104e-20
9.15931e-23
-1.06024e-20
9.19941e-23
-1.06948e-20
9.23948e-23
-1.07876e-20
9.27958e-23
-1.08808e-20
9.31965e-23
-1.09744e-20
9.35975e-23
-1.10684e-20
9.39982e-23
-1.11628e-20
9.43991e-23
-1.12576e-20
9.47999e-23
-1.13528e-20
9.52008e-23
-1.14484e-20
9.56016e-23
-1.15444e-20
9.60025e-23
-1.16408e-20
9.64033e-23
-1.17376e-20
9.68042e-23
-1.18348e-20
9.7205e-23
-1.19324e-20
9.76059e-23
-1.20305e-20
9.80066e-23
-1.21289e-20
9.84076e-23
-1.22277e-20
9.88083e-23
-1.23269e-20
9.92093e-23
-1.24265e-20
9.961e-23
-1.25265e-20
1.00011e-22
-1.26269e-20
1.00412e-22
-1.27277e-20
1.00813e-22
-1.28289e-20
1.01213e-22
-1.29305e-20
1.01614e-22
-1.30326e-20
1.02015e-22
-1.3135e-20
1.02416e-22
-1.32378e-20
1.02817e-22
-1.3341e-20
1.03218e-22
-1.34446e-20
1.03618e-22
-1.35487e-20
1.04019e-22
-1.36531e-20
1.0442e-22
-1.37579e-20
1.04821e-22
-1.38631e-20
1.05222e-22
-1.39687e-20
1.05623e-22
-1.40748e-20
1.06024e-22
-1.41812e-20
1.06424e-22
-1.4288e-20
1.06825e-22
-1.43952e-20
1.07226e-22
-1.45029e-20
1.07627e-22
-1.46109e-20
1.08028e-22
-1.47193e-20
1.08429e-22
-1.48282e-20
1.0883e-22
-1.49374e-20
1.0923e-22
-1.5047e-20
1.09631e-22
-1.5157e-20
1.10032e-22
-1.52675e-20
1.10433e-22
-1.53783e-20
1.10834e-22
-1.54895e-20
1.11235e-22
-1.56012e-20
1.11635e-22
-1.57132e-20
1.12036e-22
-1.58257e-20
1.12437e-22
-1.59385e-20
1.12838e-22
-1.60517e-20
1.13239e-22
-1.61654e-20
1.1364e-22
-1.62794e-20
1.1404e-22
-1.63939e-20
1.14441e-22
-1.65087e-20
1.14842e-22
-1.66239e-20
1.15243e-22
-1.67396e-20
1.15644e-22
-1.68556e-20
1.16045e-22
-1.69721e-20
1.16446e-22
-1.70889e-20
1.16846e-22
-1.72062e-20
1.17247e-22
-1.73238e-20
1.17648e-22
-1.74419e-20
1.18049e-22
-1.75603e-20
1.1845e-22
-1.76792e-20
1.18851e-22
-1.77984e-20
1.19252e-22
-1.79181e-20
1.19652e-22
-1.80381e-20
1.20053e-22
-1.81586e-20
1.20454e-22
-1.82794e-20
1.20855e-22
-1.84007e-20
1.21256e-22
-1.85223e-20
1.21657e-22
-1.86444e-20
1.22057e-22
-1.87669e-20
1.22458e-22
-1.88897e-20
1.22859e-22
-1.9013e-20
1.2326e-22
-1.91366e-20
1.23661e-22
-1.92607e-20
1.24062e-22
-1.93852e-20
1.24462e-22
-1.951e-20
1.24863e-22
-1.96353e-20
1.25264e-22
-1.9761e-20
1.25665e-22
-1.9887e-20
1.26066e-22
-2.00135e-20
1.26467e-22
-2.01404e-20
1.26868e-22
-2.02676e-20
1.27268e-22
-2.03953e-20
1.27669e-22
-2.05234e-20
1.2807e-22
-2.06518e-20
1.28471e-22
-2.07807e-20
1.28872e-22
-2.091e-20
1.29273e-22
-2.10396e-20
1.29674e-22
-2.11697e-20
1.30074e-22
-2.13002e-20
1.30475e-22
-2.14311e-20
1.30876e-22
-2.15624e-20
1.31277e-22
-2.1694e-20
1.31678e-22
-2.18261e-20
1.32079e-22
-2.19586e-20
1.32479e-22
-2.20915e-20
1.3288e-22
-2.22247e-20
1.33281e-22
-2.23584e-20
1.33682e-22
-2.24925e-20
1.34083e-22
-2.2627e-20
1.34484e-22
-2.27619e-20
1.34884e-22
-2.28972e-20
1.35285e-22
-2.30329e-20
1.35686e-22
-2.31689e-20
1.36087e-22
-2.33054e-20
1.36488e-22
-2.34423e-20
1.36889e-22
-2.35796e-20
1.3729e-22
-2.37173e-20
1.3769e-22
-2.38554e-20
1.38091e-22
-2.39939e-20
1.38492e-22
-2.41328e-20
1.38893e-22
-2.42721e-20
1.39294e-22
-2.44118e-20
1.39695e-22
-2.45519e-20
1.40095e-22
-2.46923e-20
1.40496e-22
-2.48332e-20
1.40897e-22
-2.49745e-20
1.41298e-22
-2.51162e-20
1.41699e-22
-2.52583e-20
1.421e-22
-2.54008e-20
1.42501e-22
-2.55437e-20
1.42901e-22
-2.5687e-20
1.43302e-22
-2.58308e-20
1.43703e-22
-2.59749e-20
1.44104e-22
-2.61194e-20
1.44505e-22
-2.62643e-20
1.44906e-22
-2.64096e-20
1.45306e-22
-2.65553e-20
1.45707e-22
-2.67014e-20
1.46108e-22
-2.68479e-20
1.46509e-22
-2.69948e-20
1.4691e-22
-2.71421e-20
1.47311e-22
-2.72898e-20
1.47712e-22
-2.74379e-20
1.48112e-22
-2.75865e-20
1.48513e-22
-2.77354e-20
1.48914e-22
-2.78847e-20
1.49315e-22
-2.80344e-20
1.49716e-22
-2.81845e-20
1.50117e-22
-2.8335e-20
1.50517e-22
-2.84859e-20
1.50918e-22
-2.86373e-20
1.51319e-22
-2.8789e-20
1.5172e-22
-2.89411e-20
1.52121e-22
-2.90936e-20
1.52522e-22
-2.92466e-20
1.52923e-22
-2.93999e-20
1.53323e-22
-2.95536e-20
1.53724e-22
-2.97077e-20
1.54125e-22
-2.98623e-20
1.54526e-22
-3.00172e-20
1.54927e-22
-3.01725e-20
1.55328e-22
-3.03282e-20
1.55728e-22
-3.04844e-20
1.56129e-22
-3.06409e-20
1.5653e-22
-3.07978e-20
1.56931e-22
-3.09552e-20
1.57332e-22
-3.11129e-20
1.57733e-22
-3.1271e-20
1.58133e-22
-3.14296e-20
1.58534e-22
-3.15885e-20
1.58935e-22
-3.17478e-20
1.59336e-22
-3.19076e-20
1.59737e-22
-3.20677e-20
1.60138e-22
-3.22282e-20
1.60539e-22
-3.23892e-20
1.60939e-22
-3.25505e-20
1.6134e-22
-3.27123e-20
1.61741e-22
-3.28744e-20
1.62142e-22
-3.30369e-20
1.62543e-22
-3.31999e-20
1.62944e-22
-3.33632e-20
1.63345e-22
-3.3527e-20
1.63745e-22
-3.36911e-20
1.64146e-22
-3.38557e-20
1.64547e-22
-3.40206e-20
1.64948e-22
-3.4186e-20
1.65349e-22
-3.43517e-20
1.6575e-22
-3.45179e-20
1.6615e-22
-3.46844e-20
1.66551e-22
-3.48514e-20
1.66952e-22
-3.50187e-20
1.67353e-22
-3.51865e-20
1.67754e-22
-3.53546e-20
1.68155e-22
-3.55232e-20
1.68555e-22
-3.56921e-20
1.68956e-22
-3.58615e-20
1.69357e-22
-3.60313e-20
1.69758e-22
-3.62014e-20
1.70159e-22
-3.6372e-20
1.7056e-22
-3.65429e-20
1.70961e-22
-3.67143e-20
1.71361e-22
-3.68861e-20
1.71762e-22
-3.70582e-20
1.72163e-22
-3.72308e-20
1.72564e-22
-3.74038e-20
1.72965e-22
-3.75771e-20
1.73366e-22
-3.77509e-20
1.73766e-22
-3.79251e-20
1.74167e-22
-3.80996e-20
1.74568e-22
-3.82746e-20
1.74969e-22
-3.845e-20
1.7537e-22
-3.86257e-20
1.75771e-22
-3.88019e-20
1.76172e-22
-3.89785e-20
1.76572e-22
-3.91554e-20
1.76973e-22
-3.93328e-20
1.77374e-22
-3.95106e-20
1.77775e-22
-3.96888e-20
1.78176e-22
-3.98673e-20
1.78577e-22
-4.00463e-20
1.78977e-22
-4.02257e-20
1.79378e-22
-4.04055e-20
1.79779e-22
-4.05857e-20
1.8018e-22
-4.07662e-20
1.80581e-22
-4.09472e-20
1.80982e-22
-4.11286e-20
1.81383e-22
-4.13104e-20
1.81783e-22
-4.14926e-20
1.82184e-22
-4.16752e-20
1.82585e-22
-4.18581e-20
1.82986e-22
-4.20415e-20
1.83387e-22
-4.22253e-20
1.83788e-22
-4.24095e-20
1.84188e-22
-4.25941e-20
1.84589e-22
-4.27791e-20
1.8499e-22
-4.29645e-20
1.85391e-22
-4.31503e-20
1.85792e-22
-4.33365e-20
1.86193e-22
-4.35231e-20
1.86594e-22
-4.371e-20
1.86994e-22
-4.38974e-20
1.87395e-22
-4.40852e-20
1.87796e-22
-4.42734e-20
1.88197e-22
-4.4462e-20
1.88598e-22
-4.4651e-20
1.88999e-22
-4.48404e-20
1.89399e-22
-4.50302e-20
1.898e-22
-4.52204e-20
1.90201e-22
-4.5411e-20
1.90602e-22
-4.5602e-20
1.91003e-22
-4.57934e-20
1.91404e-22
-4.59852e-20
1.91805e-22
-4.61775e-20
1.92205e-22
-4.63701e-20
1.92606e-22
-4.65631e-20
1.93007e-22
-4.67565e-20
1.93408e-22
-4.69503e-20
1.93809e-22
-4.71445e-20
1.9421e-22
-4.73391e-20
1.9461e-22
-4.75341e-20
1.95011e-22
-4.77295e-20
1.95412e-22
-4.79253e-20
1.95813e-22
-4.81216e-20
1.96214e-22
-4.83182e-20
1.96615e-22
-4.85152e-20
1.97016e-22
-4.87126e-20
1.97416e-22
-4.89104e-20
1.97817e-22
-4.91086e-20
1.98218e-22
-4.93073e-20
1.98619e-22
-4.95063e-20
1.9902e-22
-4.97057e-20
1.99421e-22
-4.99055e-20
1.99821e-22
-5.01057e-20
2.00222e-22
-5.03064e-20
2.00623e-22
-5.05074e-20
2.01024e-22
-5.07088e-20
2.01425e-22
-5.09106e-20
2.01826e-22
-5.11129e-20
2.02226e-22
-5.13155e-20
2.02627e-22
-5.15185e-20
2.03028e-22
-5.17219e-20
2.03429e-22
-5.19258e-20
2.0383e-22
-5.213e-20
2.04231e-22
-5.23346e-20
2.04632e-22
-5.25397e-20
2.05032e-22
-5.27451e-20
2.05433e-22
-5.29509e-20
2.05834e-22
-5.31572e-20
2.06235e-22
-5.33638e-20
2.06636e-22
-5.35708e-20
2.07037e-22
-5.37783e-20
2.07437e-22
-5.39861e-20
2.07838e-22
-5.41944e-20
2.08239e-22
-5.4403e-20
2.0864e-22
-5.4612e-20
2.09041e-22
-5.48215e-20
2.09442e-22
-5.50313e-20
2.09843e-22
-5.52416e-20
2.10243e-22
-5.54522e-20
2.10644e-22
-5.56633e-20
2.11045e-22
-5.58747e-20
2.11446e-22
-5.60865e-20
2.11847e-22
-5.62988e-20
2.12248e-22
-5.65114e-20
2.12648e-22
-5.67245e-20
2.13049e-22
-5.69379e-20
2.1345e-22
-5.71518e-20
2.13851e-22
-5.7366e-20
2.14252e-22
-5.75807e-20
2.14653e-22
-5.77958e-20
2.15054e-22
-5.80112e-20
2.15454e-22
-5.82271e-20
2.15855e-22
-5.84433e-20
2.16256e-22
-5.866e-20
2.16657e-22
-5.8877e-20
2.17058e-22
-5.90945e-20
2.17459e-22
-5.93123e-20
2.17859e-22
-5.95306e-20
2.1826e-22
-5.97493e-20
2.18661e-22
-5.99683e-20
2.19062e-22
-6.01878e-20
2.19463e-22
-6.04077e-20
2.19864e-22
-6.06279e-20
2.20265e-22
-6.08486e-20
2.20665e-22
-6.10697e-20
2.21066e-22
-6.12911e-20
2.21467e-22
-6.1513e-20
2.21868e-22
-6.17353e-20
2.22269e-22
-6.19579e-20
2.2267e-22
-6.2181e-20
2.2307e-22
-6.24045e-20
2.23471e-22
-6.26283e-20
2.23872e-22
-6.28526e-20
2.24273e-22
-6.30773e-20
2.24674e-22
-6.33024e-20
2.25075e-22
-6.35278e-20
2.25476e-22
-6.37537e-20
2.25876e-22
-6.398e-20
2.26277e-22
-6.42067e-20
2.26678e-22
-6.44337e-20
2.27079e-22
-6.46612e-20
2.2748e-22
-6.48891e-20
2.27881e-22
-6.51174e-20
2.28281e-22
-6.53461e-20
2.28682e-22
-6.55752e-20
2.29083e-22
-6.58046e-20
2.29484e-22
-6.60345e-20
2.29885e-22
-6.62648e-20
2.30286e-22
-6.64955e-20
2.30687e-22
-6.67266e-20
2.31087e-22
-6.69581e-20
2.31488e-22
-6.719e-20
2.31889e-22
-6.74222e-20
2.3229e-22
-6.76549e-20
2.32691e-22
-6.7888e-20
2.33092e-22
-6.81215e-20
2.33492e-22
-6.83554e-20
2.33893e-22
-6.85897e-20
2.34294e-22
-6.88244e-20
2.34695e-22
-6.90595e-20
2.35096e-22
-6.9295e-20
2.35497e-22
-6.95309e-20
2.35898e-22
-6.97672e-20
2.36298e-22
-7.00039e-20
2.36699e-22
-7.0241e-20
2.371e-22
-7.04785e-20
2.37501e-22
-7.07164e-20
2.37902e-22
-7.09547e-20
2.38303e-22
-7.11934e-20
2.38703e-22
-7.14325e-20
2.39104e-22
-7.1672e-20
2.39505e-22
-7.19119e-20
2.39906e-22
-7.21522e-20
2.40307e-22
-7.23929e-20
2.40708e-22
-7.2634e-20
2.41108e-22
-7.28755e-20
2.41509e-22
-7.31175e-20
2.4191e-22
-7.33598e-20
2.42311e-22
-7.36025e-20
2.42712e-22
-7.38456e-20
2.43113e-22
-7.40891e-20
2.43514e-22
-7.4333e-20
2.43914e-22
-7.45773e-20
2.44315e-22
-7.48221e-20
2.44716e-22
-7.50672e-20
2.45117e-22
-7.53127e-20
2.45518e-22
-7.55586e-20
2.45919e-22
-7.58049e-20
2.46319e-22
-7.60516e-20
2.4672e-22
-7.62988e-20
2.47121e-22
-7.65463e-20
2.47522e-22
-7.67942e-20
2.47923e-22
-7.70425e-20
2.48324e-22
-7.72913e-20
2.48725e-22
-7.75404e-20
2.49125e-22
-7.77899e-20
2.49526e-22
-7.80398e-20
2.49927e-22
-7.82902e-20
2.50328e-22
-7.85409e-20
2.50729e-22
-7.8792e-20
2.5113e-22
-7.90436e-20
2.5153e-22
-7.92955e-20
2.51931e-22
-7.95478e-20
2.52332e-22
-7.98005e-20
2.52733e-22
-8.00537e-20
2.53134e-22
-8.03072e-20
2.53535e-22
-8.05612e-20
2.53936e-22
-8.08155e-20
2.54336e-22
-8.10702e-20
2.54737e-22
-8.13254e-20
2.55138e-22
-8.15809e-20
2.55539e-22
-8.18368e-20
2.5594e-22
-8.20932e-20
2.56341e-22
-8.23499e-20
2.56741e-22
-8.26071e-20
2.57142e-22
-8.28646e-20
2.57543e-22
-8.31226e-20
2.57944e-22
-8.33809e-20
2.58345e-22
-8.36396e-20
2.58746e-22
-8.38988e-20
2.59147e-22
-8.41583e-20
2.59547e-22
-8.44183e-20
2.59948e-22
-8.46786e-20
2.60349e-22
-8.49394e-20
2.6075e-22
-8.52005e-20
2.61151e-22
-8.54621e-20
2.61552e-22
-8.5724e-20
2.61952e-22
-8.59864e-20
2.62353e-22
-8.62491e-20
2.62754e-22
-8.65123e-20
2.63155e-22
-8.67759e-20
2.63556e-22
-8.70398e-20
2.63957e-22
-8.73042e-20
2.64358e-22
-8.75689e-20
2.64758e-22
-8.78341e-20
2.65159e-22
-8.80996e-20
2.6556e-22
-8.83656e-20
2.65961e-22
-8.8632e-20
2.66362e-22
-8.88987e-20
2.66763e-22
-8.91659e-20
2.67163e-22
-8.94335e-20
2.67564e-22
-8.97014e-20
2.67965e-22
-8.99698e-20
2.68366e-22
-9.02386e-20
2.68767e-22
-9.05077e-20
2.69168e-22
-9.07773e-20
2.69569e-22
-9.10473e-20
2.69969e-22
-9.13176e-20
2.7037e-22
-9.15884e-20
2.70771e-22
-9.18596e-20
2.71172e-22
-9.21311e-20
2.71573e-22
-9.24031e-20
2.71974e-22
-9.26755e-20
2.72374e-22
-9.29483e-20
2.72775e-22
-9.32214e-20
2.73176e-22
-9.3495e-20
2.73577e-22
-9.3769e-20
2.73978e-22
-9.40434e-20
2.74379e-22
-9.43182e-20
2.7478e-22
-9.45933e-20
2.7518e-22
-9.48689e-20
2.75581e-22
-9.51449e-20
2.75982e-22
-9.54213e-20
2.76383e-22
-9.56981e-20
2.76784e-22
-9.59753e-20
2.77185e-22
-9.62528e-20
2.77585e-22
-9.65308e-20
2.77986e-22
-9.68092e-20
2.78387e-22
-9.7088e-20
2.78788e-22
-9.73672e-20
2.79189e-22
-9.76468e-20
2.7959e-22
-9.79268e-20
2.7999e-22
-9.82072e-20
2.80391e-22
-9.8488e-20
2.80792e-22
-9.87691e-20
2.81193e-22
-9.90507e-20
2.81594e-22
-9.93327e-20
2.81995e-22
-9.96151e-20
2.82396e-22
-9.98979e-20
2.82796e-22
-1.00181e-19
2.83197e-22
-1.00465e-19
2.83598e-22
-1.00749e-19
2.83999e-22
-1.01033e-19
2.844e-22
-1.01318e-19
2.84801e-22
-1.01603e-19
2.85201e-22
-1.01889e-19
2.85602e-22
-1.02175e-19
2.86003e-22
-1.02461e-19
2.86404e-22
-1.02748e-19
2.86805e-22
-1.03035e-19
2.87206e-22
-1.03323e-19
2.87607e-22
-1.03611e-19
2.88007e-22
-1.03899e-19
2.88408e-22
-1.04188e-19
2.88809e-22
-1.04477e-19
2.8921e-22
-1.04767e-19
2.89611e-22
-1.05057e-19
2.90012e-22
-1.05347e-19
2.90412e-22
-1.05638e-19
2.90813e-22
-1.05929e-19
2.91214e-22
-1.06221e-19
2.91615e-22
-1.06513e-19
2.92016e-22
-1.06805e-19
2.92417e-22
-1.07098e-19
2.92818e-22
-1.07391e-19
2.93218e-22
-1.07685e-19
2.93619e-22
-1.07979e-19
2.9402e-22
-1.08273e-19
2.94421e-22
-1.08568e-19
2.94822e-22
-1.08863e-19
2.95223e-22
-1.09159e-19
2.95623e-22
-1.09455e-19
2.96024e-22
-1.09752e-19
2.96425e-22
-1.10048e-19
2.96826e-22
-1.10346e-19
2.97227e-22
-1.10643e-19
2.97628e-22
-1.10941e-19
2.98029e-22
-1.1124e-19
2.98429e-22
-1.11538e-19
2.9883e-22
-1.11838e-19
2.99231e-22
-1.12137e-19
2.99632e-22
-1.12437e-19
3.00033e-22
-1.12738e-19
3.00434e-22
-1.13039e-19
3.00834e-22
-1.1334e-19
3.01235e-22
-1.13642e-19
3.01636e-22
-1.13944e-19
3.02037e-22
-1.14246e-19
3.02438e-22
-1.14549e-19
3.02839e-22
-1.14852e-19
3.0324e-22
-1.15156e-19
3.0364e-22
-1.1546e-19
3.04041e-22
-1.15764e-19
3.04442e-22
-1.16069e-19
3.04843e-22
-1.16374e-19
3.05244e-22
-1.1668e-19
3.05645e-22
-1.16986e-19
3.06045e-22
-1.17292e-19
3.06446e-22
-1.17599e-19
3.06847e-22
-1.17906e-19
3.07248e-22
-1.18214e-19
3.07649e-22
-1.18522e-19
3.0805e-22
-1.18831e-19
3.08451e-22
-1.19139e-19
3.08851e-22
-1.19449e-19
3.09252e-22
-1.19758e-19
3.09653e-22
-1.20068e-19
3.10054e-22
-1.20379e-19
3.10455e-22
-1.2069e-19
3.10856e-22
-1.21001e-19
3.11256e-22
-1.21313e-19
3.11657e-22
-1.21625e-19
3.12058e-22
-1.21937e-19
3.12459e-22
-1.2225e-19
3.1286e-22
-1.22563e-19
3.13261e-22
-1.22877e-19
3.13662e-22
-1.23191e-19
3.14062e-22
-1.23506e-19
3.14463e-22
-1.2382e-19
3.14864e-22
-1.24136e-19
3.15265e-22
-1.24451e-19
3.15666e-22
-1.24767e-19
3.16067e-22
-1.25084e-19
3.16467e-22
-1.25401e-19
3.16868e-22
-1.25718e-19
3.17269e-22
-1.26036e-19
3.1767e-22
-1.26354e-19
3.18071e-22
-1.26672e-19
3.18472e-22
-1.26991e-19
3.18872e-22
-1.2731e-19
3.19273e-22
-1.2763e-19
3.19674e-22
-1.2795e-19
3.20075e-22
-1.28271e-19
3.20476e-22
-1.28591e-19
3.20877e-22
-1.28913e-19
3.21278e-22
-1.29234e-19
3.21678e-22
-1.29556e-19
3.22079e-22
-1.29879e-19
3.2248e-22
-1.30202e-19
3.22881e-22
-1.30525e-19
3.23282e-22
-1.30849e-19
3.23683e-22
-1.31173e-19
3.24083e-22
-1.31497e-19
3.24484e-22
-1.31822e-19
3.24885e-22
-1.32148e-19
3.25286e-22
-1.32473e-19
3.25687e-22
-1.32799e-19
3.26088e-22
-1.33126e-19
3.26489e-22
-1.33453e-19
3.26889e-22
-1.3378e-19
3.2729e-22
-1.34108e-19
3.27691e-22
-1.34436e-19
3.28092e-22
-1.34764e-19
3.28493e-22
-1.35093e-19
3.28894e-22
-1.35422e-19
3.29294e-22
-1.35752e-19
3.29695e-22
-1.36082e-19
3.30096e-22
-1.36413e-19
3.30497e-22
-1.36744e-19
3.30898e-22
-1.37075e-19
3.31299e-22
-1.37407e-19
3.317e-22
-1.37739e-19
3.321e-22
-1.38071e-19
3.32501e-22
-1.38404e-19
3.32902e-22
-1.38737e-19
3.33303e-22
-1.39071e-19
3.33704e-22
-1.39405e-19
3.34105e-22
-1.3974e-19
3.34505e-22
-1.40075e-19
3.34906e-22
-1.4041e-19
3.35307e-22
-1.40746e-19
3.35708e-22
-1.41082e-19
3.36109e-22
-1.41418e-19
3.3651e-22
-1.41755e-19
3.36911e-22
-1.42092e-19
3.37311e-22
-1.4243e-19
3.37712e-22
-1.42768e-19
3.38113e-22
-1.43107e-19
3.38514e-22
-1.43446e-19
3.38915e-22
-1.43785e-19
3.39316e-22
-1.44125e-19
3.39716e-22
-1.44465e-19
3.40117e-22
-1.44805e-19
3.40518e-22
-1.45146e-19
3.40919e-22
-1.45488e-19
3.4132e-22
-1.45829e-19
3.41721e-22
-1.46171e-19
3.42122e-22
-1.46514e-19
3.42522e-22
-1.46857e-19
3.42923e-22
-1.472e-19
3.43324e-22
-1.47544e-19
3.43725e-22
-1.47888e-19
3.44126e-22
-1.48233e-19
3.44527e-22
-1.48578e-19
3.44927e-22
-1.48923e-19
3.45328e-22
-1.49269e-19
3.45729e-22
-1.49615e-19
3.4613e-22
-1.49961e-19
3.46531e-22
-1.50308e-19
3.46932e-22
-1.50656e-19
3.47333e-22
-1.51003e-19
3.47733e-22
-1.51351e-19
3.48134e-22
-1.517e-19
3.48535e-22
-1.52049e-19
3.48936e-22
-1.52398e-19
3.49337e-22
-1.52748e-19
3.49738e-22
-1.53098e-19
3.50138e-22
-1.53449e-19
3.50539e-22
-1.538e-19
3.5094e-22
-1.54151e-19
3.51341e-22
-1.54503e-19
3.51742e-22
-1.54855e-19
3.52143e-22
-1.55207e-19
3.52543e-22
-1.5556e-19
3.52944e-22
-1.55914e-19
3.53345e-22
-1.56267e-19
3.53746e-22
-1.56622e-19
3.54147e-22
-1.56976e-19
3.54548e-22
-1.57331e-19
3.54949e-22
-1.57686e-19
3.55349e-22
-1.58042e-19
3.5575e-22
-1.58398e-19
3.56151e-22
-1.58755e-19
3.56552e-22
-1.59112e-19
3.56953e-22
-1.59469e-19
3.57354e-22
-1.59827e-19
3.57754e-22
-1.60185e-19
3.58155e-22
-1.60544e-19
3.58556e-22
-1.60903e-19
3.58957e-22
-1.61262e-19
3.59358e-22
-1.61622e-19
3.59759e-22
-1.61982e-19
3.6016e-22
-1.62342e-19
3.6056e-22
-1.62703e-19
3.60961e-22
-1.63065e-19
3.61362e-22
-1.63426e-19
3.61763e-22
-1.63789e-19
3.62164e-22
-1.64151e-19
3.62565e-22
-1.64514e-19
3.62965e-22
-1.64878e-19
3.63366e-22
-1.65241e-19
3.63767e-22
-1.65605e-19
3.64168e-22
-1.6597e-19
3.64569e-22
-1.66335e-19
3.6497e-22
-1.667e-19
3.65371e-22
-1.67066e-19
3.65771e-22
-1.67432e-19
3.66172e-22
-1.67799e-19
3.66573e-22
-1.68166e-19
3.66974e-22
-1.68533e-19
3.67375e-22
-1.68901e-19
3.67776e-22
-1.69269e-19
3.68176e-22
-1.69638e-19
3.68577e-22
-1.70007e-19
3.68978e-22
-1.70376e-19
3.69379e-22
-1.70746e-19
3.6978e-22
-1.71116e-19
3.70181e-22
-1.71487e-19
3.70582e-22
-1.71858e-19
3.70982e-22
-1.72229e-19
3.71383e-22
-1.72601e-19
3.71784e-22
-1.72973e-19
3.72185e-22
-1.73346e-19
3.72586e-22
-1.73719e-19
3.72987e-22
-1.74092e-19
3.73387e-22
-1.74466e-19
3.73788e-22
-1.7484e-19
3.74189e-22
-1.75215e-19
3.7459e-22
-1.7559e-19
3.74991e-22
-1.75965e-19
3.75392e-22
-1.76341e-19
3.75793e-22
-1.76717e-19
3.76193e-22
-1.77093e-19
3.76594e-22
-1.7747e-19
3.76995e-22
-1.77848e-19
3.77396e-22
-1.78226e-19
3.77797e-22
-1.78604e-19
3.78198e-22
-1.78982e-19
3.78598e-22
-1.79361e-19
3.78999e-22
-1.79741e-19
3.794e-22
-1.80121e-19
3.79801e-22
-1.80501e-19
3.80202e-22
-1.80881e-19
3.80603e-22
-1.81262e-19
3.81004e-22
-1.81644e-19
3.81404e-22
-1.82026e-19
3.81805e-22
-1.82408e-19
3.82206e-22
-1.82791e-19
3.82607e-22
-1.83174e-19
3.83008e-22
-1.83557e-19
3.83409e-22
-1.83941e-19
3.83809e-22
-1.84325e-19
3.8421e-22
-1.8471e-19
3.84611e-22
-1.85095e-19
3.85012e-22
-1.8548e-19
3.85413e-22
-1.85866e-19
3.85814e-22
-1.86252e-19
3.86214e-22
-1.86639e-19
3.86615e-22
-1.87026e-19
3.87016e-22
-1.87413e-19
3.87417e-22
-1.87801e-19
3.87818e-22
-1.88189e-19
3.88219e-22
-1.88578e-19
3.8862e-22
-1.88967e-19
3.8902e-22
-1.89356e-19
3.89421e-22
-1.89746e-19
3.89822e-22
-1.90136e-19
3.90223e-22
-1.90527e-19
3.90624e-22
-1.90918e-19
3.91025e-22
-1.91309e-19
3.91426e-22
-1.91701e-19
3.91826e-22
-1.92093e-19
3.92227e-22
-1.92486e-19
3.92628e-22
-1.92879e-19
3.93029e-22
-1.93272e-19
3.9343e-22
-1.93666e-19
3.93831e-22
-1.9406e-19
3.94231e-22
-1.94455e-19
3.94632e-22
-1.9485e-19
3.95033e-22
-1.95246e-19
3.95434e-22
-1.95641e-19
3.95835e-22
-1.96038e-19
3.96236e-22
-1.96434e-19
3.96636e-22
-1.96831e-19
3.97037e-22
-1.97229e-19
3.97438e-22
-1.97627e-19
3.97839e-22
-1.98025e-19
3.9824e-22
-1.98423e-19
3.98641e-22
-1.98823e-19
3.99042e-22
-1.99222e-19
3.99442e-22
-1.99622e-19
3.99843e-22
-2.00022e-19
4.00244e-22
-2.00423e-19
4.00645e-22
-2.00824e-19
4.01046e-22
-2.01225e-19
4.01447e-22
-2.01627e-19
4.01847e-22
-2.02029e-19
4.02248e-22
-2.02432e-19
4.02649e-22
-2.02835e-19
4.0305e-22
-2.03238e-19
4.03451e-22
-2.03642e-19
4.03852e-22
-2.04047e-19
4.04253e-22
-2.04451e-19
4.04653e-22
-2.04856e-19
4.05054e-22
-2.05262e-19
4.05455e-22
-2.05668e-19
4.05856e-22
-2.06074e-19
4.06257e-22
-2.0648e-19
4.06658e-22
-2.06888e-19
4.07058e-22
-2.07295e-19
4.07459e-22
-2.07703e-19
4.0786e-22
-2.08111e-19
4.08261e-22
-2.0852e-19
4.08662e-22
-2.08929e-19
4.09063e-22
-2.09338e-19
4.09464e-22
-2.09748e-19
4.09864e-22
-2.10158e-19
4.10265e-22
-2.10569e-19
4.10666e-22
-2.1098e-19
4.11067e-22
-2.11392e-19
4.11468e-22
-2.11803e-19
4.11869e-22
-2.12216e-19
4.12269e-22
-2.12628e-19
4.1267e-22
-2.13041e-19
4.13071e-22
-2.13455e-19
4.13472e-22
-2.13869e-19
4.13873e-22
-2.14283e-19
4.14274e-22
-2.14698e-19
4.14675e-22
-2.15113e-19
4.15075e-22
-2.15528e-19
4.15476e-22
-2.15944e-19
4.15877e-22
-2.1636e-19
4.16278e-22
-2.16777e-19
4.16679e-22
-2.17194e-19
4.1708e-22
-2.17612e-19
4.1748e-22
-2.1803e-19
4.17881e-22
-2.18448e-19
4.18282e-22
-2.18867e-19
4.18683e-22
-2.19286e-19
4.19084e-22
-2.19705e-19
4.19485e-22
-2.20125e-19
4.19886e-22
-2.20545e-19
4.20286e-22
-2.20966e-19
4.20687e-22
-2.21387e-19
4.21088e-22
-2.21809e-19
4.21489e-22
-2.2223e-19
4.2189e-22
-2.22653e-19
4.22291e-22
-2.23075e-19
4.22691e-22
-2.23499e-19
4.23092e-22
-2.23922e-19
4.23493e-22
-2.24346e-19
4.23894e-22
-2.2477e-19
4.24295e-22
-2.25195e-19
4.24696e-22
-2.2562e-19
4.25097e-22
-2.26046e-19
4.25497e-22
-2.26471e-19
4.25898e-22
-2.26898e-19
4.26299e-22
-2.27324e-19
4.267e-22
-2.27752e-19
4.27101e-22
-2.28179e-19
4.27502e-22
-2.28607e-19
4.27902e-22
-2.29035e-19
4.28303e-22
-2.29464e-19
4.28704e-22
-2.29893e-19
4.29105e-22
-2.30323e-19
4.29506e-22
-2.30752e-19
4.29907e-22
-2.31183e-19
4.30307e-22
-2.31613e-19
4.30708e-22
-2.32045e-19
4.31109e-22
-2.32476e-19
4.3151e-22
-2.32908e-19
4.31911e-22
-2.3334e-19
4.32312e-22
-2.33773e-19
4.32713e-22
-2.34206e-19
4.33113e-22
-2.3464e-19
4.33514e-22
-2.35074e-19
4.33915e-22
-2.35508e-19
4.34316e-22
-2.35943e-19
4.34717e-22
-2.36378e-19
4.35118e-22
-2.36813e-19
4.35518e-22
-2.37249e-19
4.35919e-22
-2.37685e-19
4.3632e-22
-2.38122e-19
4.36721e-22
-2.38559e-19
4.37122e-22
-2.38997e-19
4.37523e-22
-2.39435e-19
4.37924e-22
-2.39873e-19
4.38324e-22
-2.40312e-19
4.38725e-22
-2.40751e-19
4.39126e-22
-2.4119e-19
4.39527e-22
-2.4163e-19
4.39928e-22
-2.42071e-19
4.40329e-22
-2.42511e-19
4.40729e-22
-2.42953e-19
4.4113e-22
-2.43394e-19
4.41531e-22
-2.43836e-19
4.41932e-22
-2.44278e-19
4.42333e-22
-2.44721e-19
4.42734e-22
-2.45164e-19
4.43135e-22
-2.45608e-19
4.43535e-22
-2.46052e-19
4.43936e-22
-2.46496e-19
4.44337e-22
-2.46941e-19
4.44738e-22
-2.47386e-19
4.45139e-22
-2.47831e-19
4.4554e-22
-2.48277e-19
4.4594e-22
-2.48724e-19
4.46341e-22
-2.4917e-19
4.46742e-22
-2.49618e-19
4.47143e-22
-2.50065e-19
4.47544e-22
-2.50513e-19
4.47945e-22
-2.50961e-19
4.48346e-22
-2.5141e-19
4.48746e-22
-2.51859e-19
4.49147e-22
-2.52309e-19
4.49548e-22
-2.52759e-19
4.49949e-22
-2.53209e-19
4.5035e-22
-2.5366e-19
4.50751e-22
-2.54111e-19
4.51151e-22
-2.54563e-19
4.51552e-22
-2.55015e-19
4.51953e-22
-2.55467e-19
4.52354e-22
-2.5592e-19
4.52755e-22
-2.56373e-19
4.53156e-22
-2.56826e-19
4.53557e-22
-2.5728e-19
4.53957e-22
-2.57735e-19
4.54358e-22
-2.58189e-19
4.54759e-22
-2.58645e-19
4.5516e-22
-2.591e-19
4.55561e-22
-2.59556e-19
4.55962e-22
-2.60013e-19
4.56362e-22
-2.60469e-19
4.56763e-22
-2.60926e-19
4.57164e-22
-2.61384e-19
4.57565e-22
-2.61842e-19
4.57966e-22
-2.623e-19
4.58367e-22
-2.62759e-19
4.58768e-22
-2.63218e-19
4.59168e-22
-2.63678e-19
4.59569e-22
-2.64138e-19
4.5997e-22
-2.64598e-19
4.60371e-22
-2.65059e-19
4.60772e-22
-2.6552e-19
4.61173e-22
-2.65982e-19
4.61573e-22
-2.66444e-19
4.61974e-22
-2.66906e-19
4.62375e-22
-2.67369e-19
4.62776e-22
-2.67832e-19
4.63177e-22
-2.68296e-19
4.63578e-22
-2.6876e-19
4.63978e-22
-2.69224e-19
4.64379e-22
-2.69689e-19
4.6478e-22
-2.70154e-19
4.65181e-22
-2.7062e-19
4.65582e-22
-2.71085e-19
4.65983e-22
-2.71552e-19
4.66384e-22
-2.72019e-19
4.66784e-22
-2.72486e-19
4.67185e-22
-2.72953e-19
4.67586e-22
-2.73421e-19
4.67987e-22
-2.7389e-19
4.68388e-22
-2.74359e-19
4.68789e-22
-2.74828e-19
4.6919e-22
-2.75297e-19
4.6959e-22
-2.75767e-19
4.69991e-22