/*--------------------------------*- C++ -*----------------------------------*\
| =========                 |                                                 |
| \\      /  F ield         | OpenFOAM: The Open Source CFD Toolbox           |
|  \\    /   O peration     | Version:  2206                                  |
|   \\  /    A nd           | Website:  www.openfoam.com                      |
|    \\/     M anipulation  |                                                 |
\*---------------------------------------------------------------------------*/
FoamFile
{
    version     2.0;
    format      ascii;
    arch        "LSB;label=32;scalar=64";
    class       volVectorField;
    location    "100";
    object      U;
}
// * * * * * * * * * * * * * * * * * * * * * * * * * * * * * * * * * * * * * //

dimensions      [0 1 -1 0 0 0 0];

internalField   nonuniform List<vector> 
50000
(
(-7.76142e-13 2.41365e-06 5.9768e-13)
(-2.31178e-12 6.26179e-06 9.39488e-14)
(-4.37301e-12 1.01866e-05 6.76173e-14)
(-6.29859e-12 1.41671e-05 6.35227e-14)
(-8.02714e-12 1.8166e-05 6.68874e-14)
(-9.85399e-12 2.21727e-05 6.57925e-14)
(-1.16599e-11 2.61836e-05 6.4789e-14)
(-1.34507e-11 3.0197e-05 6.60262e-14)
(-1.52471e-11 3.42121e-05 6.56774e-14)
(-1.7047e-11 3.82283e-05 6.57681e-14)
(-1.88452e-11 4.22452e-05 6.54641e-14)
(-2.06409e-11 4.62628e-05 6.58063e-14)
(-2.24375e-11 5.02807e-05 6.56122e-14)
(-2.42347e-11 5.42991e-05 6.57395e-14)
(-2.60313e-11 5.83177e-05 6.55888e-14)
(-2.78278e-11 6.23365e-05 6.5748e-14)
(-2.96239e-11 6.63555e-05 6.56155e-14)
(-3.14209e-11 7.03747e-05 6.57191e-14)
(-3.32165e-11 7.43939e-05 6.5633e-14)
(-3.50135e-11 7.84133e-05 6.57072e-14)
(-3.68091e-11 8.24328e-05 6.56442e-14)
(-3.86059e-11 8.64523e-05 6.56993e-14)
(-4.04016e-11 9.0472e-05 6.56479e-14)
(-4.21981e-11 9.44917e-05 6.56972e-14)
(-4.39939e-11 9.85114e-05 6.56513e-14)
(-4.57903e-11 0.000102531 6.56932e-14)
(-4.75862e-11 0.000106551 6.56549e-14)
(-4.93825e-11 0.000110571 6.56907e-14)
(-5.11783e-11 0.000114591 6.56571e-14)
(-5.29746e-11 0.000118611 6.56888e-14)
(-5.47705e-11 0.000122631 6.5659e-14)
(-5.65666e-11 0.000126651 6.56872e-14)
(-5.83626e-11 0.000130671 6.56606e-14)
(-6.01587e-11 0.000134691 6.56859e-14)
(-6.19546e-11 0.000138711 6.5662e-14)
(-6.37507e-11 0.000142731 6.56847e-14)
(-6.55466e-11 0.000146751 6.56632e-14)
(-6.73427e-11 0.000150771 6.56837e-14)
(-6.91386e-11 0.000154791 6.56643e-14)
(-7.09346e-11 0.000158811 6.56828e-14)
(-7.27306e-11 0.000162831 6.56652e-14)
(-7.45266e-11 0.000166851 6.5682e-14)
(-7.63225e-11 0.000170871 6.5666e-14)
(-7.81185e-11 0.000174891 6.56813e-14)
(-7.99144e-11 0.000178912 6.56667e-14)
(-8.17104e-11 0.000182932 6.56807e-14)
(-8.35064e-11 0.000186952 6.56674e-14)
(-8.53023e-11 0.000190972 6.56802e-14)
(-8.70983e-11 0.000194992 6.56679e-14)
(-8.88942e-11 0.000199012 6.56797e-14)
(-9.06902e-11 0.000203033 6.56684e-14)
(-9.24861e-11 0.000207053 6.56793e-14)
(-9.42821e-11 0.000211073 6.56689e-14)
(-9.6078e-11 0.000215093 6.56789e-14)
(-9.78739e-11 0.000219113 6.56693e-14)
(-9.96699e-11 0.000223133 6.56786e-14)
(-1.01466e-10 0.000227154 6.56696e-14)
(-1.03262e-10 0.000231174 6.56783e-14)
(-1.05058e-10 0.000235194 6.567e-14)
(-1.06854e-10 0.000239214 6.5678e-14)
(-1.0865e-10 0.000243235 6.56703e-14)
(-1.10445e-10 0.000247255 6.56778e-14)
(-1.12241e-10 0.000251275 6.56705e-14)
(-1.14037e-10 0.000255295 6.56776e-14)
(-1.15833e-10 0.000259315 6.56708e-14)
(-1.17629e-10 0.000263336 6.56774e-14)
(-1.19425e-10 0.000267356 6.5671e-14)
(-1.21221e-10 0.000271376 6.56772e-14)
(-1.23017e-10 0.000275396 6.56712e-14)
(-1.24813e-10 0.000279417 6.5677e-14)
(-1.26609e-10 0.000283437 6.56714e-14)
(-1.28405e-10 0.000287457 6.56768e-14)
(-1.30201e-10 0.000291477 6.56716e-14)
(-1.31997e-10 0.000295498 6.56767e-14)
(-1.33793e-10 0.000299518 6.56717e-14)
(-1.35588e-10 0.000303538 6.56766e-14)
(-1.37384e-10 0.000307558 6.56719e-14)
(-1.3918e-10 0.000311579 6.56764e-14)
(-1.40976e-10 0.000315599 6.5672e-14)
(-1.42772e-10 0.000319619 6.56763e-14)
(-1.44568e-10 0.000323639 6.56721e-14)
(-1.46364e-10 0.00032766 6.56762e-14)
(-1.4816e-10 0.00033168 6.56722e-14)
(-1.49956e-10 0.0003357 6.56761e-14)
(-1.51752e-10 0.000339721 6.56723e-14)
(-1.53548e-10 0.000343741 6.5676e-14)
(-1.55343e-10 0.000347761 6.56724e-14)
(-1.57139e-10 0.000351781 6.5676e-14)
(-1.58935e-10 0.000355802 6.56725e-14)
(-1.60731e-10 0.000359822 6.56759e-14)
(-1.62527e-10 0.000363842 6.56726e-14)
(-1.64323e-10 0.000367862 6.56758e-14)
(-1.66119e-10 0.000371883 6.56727e-14)
(-1.67915e-10 0.000375903 6.56757e-14)
(-1.69711e-10 0.000379923 6.56728e-14)
(-1.71507e-10 0.000383944 6.56757e-14)
(-1.73303e-10 0.000387964 6.56729e-14)
(-1.75099e-10 0.000391984 6.56756e-14)
(-1.76894e-10 0.000396004 6.56729e-14)
(-1.7869e-10 0.000400025 6.56756e-14)
(-1.80486e-10 0.000404045 6.5673e-14)
(-1.82282e-10 0.000408065 6.56755e-14)
(-1.84078e-10 0.000412086 6.5673e-14)
(-1.85874e-10 0.000416106 6.56754e-14)
(-1.8767e-10 0.000420126 6.56731e-14)
(-1.89466e-10 0.000424146 6.56754e-14)
(-1.91262e-10 0.000428167 6.56731e-14)
(-1.93058e-10 0.000432187 6.56754e-14)
(-1.94853e-10 0.000436207 6.56732e-14)
(-1.96649e-10 0.000440228 6.56753e-14)
(-1.98445e-10 0.000444248 6.56732e-14)
(-2.00241e-10 0.000448268 6.56753e-14)
(-2.02037e-10 0.000452288 6.56733e-14)
(-2.03833e-10 0.000456309 6.56752e-14)
(-2.05629e-10 0.000460329 6.56733e-14)
(-2.07425e-10 0.000464349 6.56752e-14)
(-2.09221e-10 0.00046837 6.56734e-14)
(-2.11017e-10 0.00047239 6.56752e-14)
(-2.12813e-10 0.00047641 6.56734e-14)
(-2.14608e-10 0.00048043 6.56751e-14)
(-2.16404e-10 0.000484451 6.56734e-14)
(-2.182e-10 0.000488471 6.56751e-14)
(-2.19996e-10 0.000492491 6.56735e-14)
(-2.21792e-10 0.000496512 6.56751e-14)
(-2.23588e-10 0.000500532 6.56735e-14)
(-2.25384e-10 0.000504552 6.5675e-14)
(-2.2718e-10 0.000508572 6.56735e-14)
(-2.28976e-10 0.000512593 6.5675e-14)
(-2.30772e-10 0.000516613 6.56736e-14)
(-2.32567e-10 0.000520633 6.5675e-14)
(-2.34363e-10 0.000524654 6.56736e-14)
(-2.36159e-10 0.000528674 6.5675e-14)
(-2.37955e-10 0.000532694 6.56736e-14)
(-2.39751e-10 0.000536715 6.56749e-14)
(-2.41547e-10 0.000540735 6.56736e-14)
(-2.43343e-10 0.000544755 6.56749e-14)
(-2.45139e-10 0.000548775 6.56737e-14)
(-2.46935e-10 0.000552796 6.56749e-14)
(-2.48731e-10 0.000556816 6.56737e-14)
(-2.50526e-10 0.000560836 6.56749e-14)
(-2.52322e-10 0.000564857 6.56737e-14)
(-2.54118e-10 0.000568877 6.56749e-14)
(-2.55914e-10 0.000572897 6.56737e-14)
(-2.5771e-10 0.000576917 6.56748e-14)
(-2.59506e-10 0.000580938 6.56737e-14)
(-2.61302e-10 0.000584958 6.56748e-14)
(-2.63098e-10 0.000588978 6.56738e-14)
(-2.64894e-10 0.000592999 6.56748e-14)
(-2.6669e-10 0.000597019 6.56738e-14)
(-2.68486e-10 0.000601039 6.56748e-14)
(-2.70281e-10 0.00060506 6.56738e-14)
(-2.72077e-10 0.00060908 6.56748e-14)
(-2.73873e-10 0.0006131 6.56738e-14)
(-2.75669e-10 0.00061712 6.56748e-14)
(-2.77465e-10 0.000621141 6.56738e-14)
(-2.79261e-10 0.000625161 6.56747e-14)
(-2.81057e-10 0.000629181 6.56738e-14)
(-2.82853e-10 0.000633202 6.56747e-14)
(-2.84649e-10 0.000637222 6.56739e-14)
(-2.86445e-10 0.000641242 6.56747e-14)
(-2.8824e-10 0.000645263 6.56739e-14)
(-2.90036e-10 0.000649283 6.56747e-14)
(-2.91832e-10 0.000653303 6.56739e-14)
(-2.93628e-10 0.000657323 6.56747e-14)
(-2.95424e-10 0.000661344 6.56739e-14)
(-2.9722e-10 0.000665364 6.56747e-14)
(-2.99016e-10 0.000669384 6.56739e-14)
(-3.00812e-10 0.000673405 6.56747e-14)
(-3.02608e-10 0.000677425 6.56739e-14)
(-3.04404e-10 0.000681445 6.56747e-14)
(-3.06199e-10 0.000685466 6.56739e-14)
(-3.07995e-10 0.000689486 6.56747e-14)
(-3.09791e-10 0.000693506 6.56739e-14)
(-3.11587e-10 0.000697527 6.56746e-14)
(-3.13383e-10 0.000701547 6.5674e-14)
(-3.15179e-10 0.000705567 6.56746e-14)
(-3.16975e-10 0.000709587 6.5674e-14)
(-3.18771e-10 0.000713608 6.56746e-14)
(-3.20567e-10 0.000717628 6.5674e-14)
(-3.22363e-10 0.000721648 6.56746e-14)
(-3.24158e-10 0.000725669 6.5674e-14)
(-3.25954e-10 0.000729689 6.56746e-14)
(-3.2775e-10 0.000733709 6.5674e-14)
(-3.29546e-10 0.00073773 6.56746e-14)
(-3.31342e-10 0.00074175 6.5674e-14)
(-3.33138e-10 0.00074577 6.56746e-14)
(-3.34934e-10 0.00074979 6.5674e-14)
(-3.3673e-10 0.000753811 6.56746e-14)
(-3.38526e-10 0.000757831 6.5674e-14)
(-3.40322e-10 0.000761851 6.56746e-14)
(-3.42117e-10 0.000765872 6.5674e-14)
(-3.43913e-10 0.000769892 6.56746e-14)
(-3.45709e-10 0.000773912 6.5674e-14)
(-3.47505e-10 0.000777933 6.56746e-14)
(-3.49301e-10 0.000781953 6.5674e-14)
(-3.51097e-10 0.000785973 6.56745e-14)
(-3.52893e-10 0.000789994 6.5674e-14)
(-3.54689e-10 0.000794014 6.56745e-14)
(-3.56485e-10 0.000798034 6.56741e-14)
(-3.5828e-10 0.000802054 6.56745e-14)
(-3.60076e-10 0.000806075 6.56741e-14)
(-3.61872e-10 0.000810095 6.56745e-14)
(-3.63668e-10 0.000814115 6.56741e-14)
(-3.65464e-10 0.000818136 6.56745e-14)
(-3.6726e-10 0.000822156 6.56741e-14)
(-3.69056e-10 0.000826176 6.56745e-14)
(-3.70852e-10 0.000830197 6.56741e-14)
(-3.72648e-10 0.000834217 6.56745e-14)
(-3.74444e-10 0.000838237 6.56741e-14)
(-3.76239e-10 0.000842258 6.56745e-14)
(-3.78035e-10 0.000846278 6.56741e-14)
(-3.79831e-10 0.000850298 6.56745e-14)
(-3.81627e-10 0.000854318 6.56741e-14)
(-3.83423e-10 0.000858339 6.56745e-14)
(-3.85219e-10 0.000862359 6.56741e-14)
(-3.87015e-10 0.000866379 6.56745e-14)
(-3.88811e-10 0.0008704 6.56741e-14)
(-3.90607e-10 0.00087442 6.56745e-14)
(-3.92403e-10 0.00087844 6.56741e-14)
(-3.94198e-10 0.000882461 6.56745e-14)
(-3.95994e-10 0.000886481 6.56741e-14)
(-3.9779e-10 0.000890501 6.56745e-14)
(-3.99586e-10 0.000894522 6.56741e-14)
(-4.01382e-10 0.000898542 6.56745e-14)
(-4.03178e-10 0.000902562 6.56741e-14)
(-4.04974e-10 0.000906582 6.56745e-14)
(-4.0677e-10 0.000910603 6.56741e-14)
(-4.08566e-10 0.000914623 6.56745e-14)
(-4.10362e-10 0.000918643 6.56741e-14)
(-4.12157e-10 0.000922664 6.56745e-14)
(-4.13953e-10 0.000926684 6.56741e-14)
(-4.15749e-10 0.000930704 6.56745e-14)
(-4.17545e-10 0.000934725 6.56741e-14)
(-4.19341e-10 0.000938745 6.56745e-14)
(-4.21137e-10 0.000942765 6.56741e-14)
(-4.22933e-10 0.000946786 6.56745e-14)
(-4.24729e-10 0.000950806 6.56741e-14)
(-4.26525e-10 0.000954826 6.56745e-14)
(-4.28321e-10 0.000958846 6.56741e-14)
(-4.30116e-10 0.000962867 6.56745e-14)
(-4.31912e-10 0.000966887 6.56741e-14)
(-4.33708e-10 0.000970907 6.56744e-14)
(-4.35504e-10 0.000974928 6.56742e-14)
(-4.373e-10 0.000978948 6.56744e-14)
(-4.39096e-10 0.000982968 6.56742e-14)
(-4.40892e-10 0.000986989 6.56744e-14)
(-4.42688e-10 0.000991009 6.56742e-14)
(-4.44484e-10 0.000995029 6.56744e-14)
(-4.46279e-10 0.00099905 6.56742e-14)
(-4.48075e-10 0.00100307 6.56744e-14)
(-4.49871e-10 0.00100709 6.56742e-14)
(-4.51667e-10 0.00101111 6.56744e-14)
(-4.53463e-10 0.00101513 6.56742e-14)
(-4.55259e-10 0.00101915 6.56744e-14)
(-4.57055e-10 0.00102317 6.56742e-14)
(-4.58851e-10 0.00102719 6.56744e-14)
(-4.60647e-10 0.00103121 6.56742e-14)
(-4.62443e-10 0.00103523 6.56744e-14)
(-4.64238e-10 0.00103925 6.56742e-14)
(-4.66034e-10 0.00104327 6.56744e-14)
(-4.6783e-10 0.00104729 6.56742e-14)
(-4.69626e-10 0.00105131 6.56744e-14)
(-4.71422e-10 0.00105533 6.56742e-14)
(-4.73218e-10 0.00105935 6.56744e-14)
(-4.75014e-10 0.00106337 6.56742e-14)
(-4.7681e-10 0.00106739 6.56744e-14)
(-4.78606e-10 0.00107142 6.56742e-14)
(-4.80402e-10 0.00107544 6.56744e-14)
(-4.82197e-10 0.00107946 6.56742e-14)
(-4.83993e-10 0.00108348 6.56744e-14)
(-4.85789e-10 0.0010875 6.56742e-14)
(-4.87585e-10 0.00109152 6.56744e-14)
(-4.89381e-10 0.00109554 6.56742e-14)
(-4.91177e-10 0.00109956 6.56744e-14)
(-4.92973e-10 0.00110358 6.56742e-14)
(-4.94769e-10 0.0011076 6.56744e-14)
(-4.96565e-10 0.00111162 6.56742e-14)
(-4.98361e-10 0.00111564 6.56744e-14)
(-5.00156e-10 0.00111966 6.56742e-14)
(-5.01952e-10 0.00112368 6.56744e-14)
(-5.03748e-10 0.0011277 6.56742e-14)
(-5.05544e-10 0.00113172 6.56744e-14)
(-5.0734e-10 0.00113574 6.56742e-14)
(-5.09136e-10 0.00113976 6.56744e-14)
(-5.10932e-10 0.00114378 6.56742e-14)
(-5.12728e-10 0.0011478 6.56744e-14)
(-5.14524e-10 0.00115182 6.56742e-14)
(-5.16319e-10 0.00115584 6.56744e-14)
(-5.18115e-10 0.00115986 6.56742e-14)
(-5.19911e-10 0.00116388 6.56744e-14)
(-5.21707e-10 0.0011679 6.56742e-14)
(-5.23503e-10 0.00117192 6.56744e-14)
(-5.25299e-10 0.00117594 6.56742e-14)
(-5.27095e-10 0.00117996 6.56744e-14)
(-5.28891e-10 0.00118398 6.56742e-14)
(-5.30687e-10 0.001188 6.56744e-14)
(-5.32483e-10 0.00119202 6.56742e-14)
(-5.34278e-10 0.00119604 6.56744e-14)
(-5.36074e-10 0.00120007 6.56742e-14)
(-5.3787e-10 0.00120409 6.56744e-14)
(-5.39666e-10 0.00120811 6.56742e-14)
(-5.41462e-10 0.00121213 6.56744e-14)
(-5.43258e-10 0.00121615 6.56742e-14)
(-5.45054e-10 0.00122017 6.56744e-14)
(-5.4685e-10 0.00122419 6.56742e-14)
(-5.48646e-10 0.00122821 6.56744e-14)
(-5.50442e-10 0.00123223 6.56742e-14)
(-5.52237e-10 0.00123625 6.56744e-14)
(-5.54033e-10 0.00124027 6.56742e-14)
(-5.55829e-10 0.00124429 6.56744e-14)
(-5.57625e-10 0.00124831 6.56742e-14)
(-5.59421e-10 0.00125233 6.56744e-14)
(-5.61217e-10 0.00125635 6.56742e-14)
(-5.63013e-10 0.00126037 6.56744e-14)
(-5.64809e-10 0.00126439 6.56742e-14)
(-5.66605e-10 0.00126841 6.56744e-14)
(-5.684e-10 0.00127243 6.56742e-14)
(-5.70196e-10 0.00127645 6.56744e-14)
(-5.71992e-10 0.00128047 6.56742e-14)
(-5.73788e-10 0.00128449 6.56744e-14)
(-5.75584e-10 0.00128851 6.56742e-14)
(-5.7738e-10 0.00129253 6.56744e-14)
(-5.79176e-10 0.00129655 6.56742e-14)
(-5.80972e-10 0.00130057 6.56744e-14)
(-5.82768e-10 0.00130459 6.56742e-14)
(-5.84564e-10 0.00130861 6.56744e-14)
(-5.86359e-10 0.00131263 6.56742e-14)
(-5.88155e-10 0.00131665 6.56744e-14)
(-5.89951e-10 0.00132067 6.56742e-14)
(-5.91747e-10 0.00132469 6.56744e-14)
(-5.93543e-10 0.00132872 6.56742e-14)
(-5.95339e-10 0.00133274 6.56744e-14)
(-5.97135e-10 0.00133676 6.56742e-14)
(-5.98931e-10 0.00134078 6.56744e-14)
(-6.00727e-10 0.0013448 6.56742e-14)
(-6.02523e-10 0.00134882 6.56744e-14)
(-6.04318e-10 0.00135284 6.56742e-14)
(-6.06114e-10 0.00135686 6.56744e-14)
(-6.0791e-10 0.00136088 6.56742e-14)
(-6.09706e-10 0.0013649 6.56744e-14)
(-6.11502e-10 0.00136892 6.56742e-14)
(-6.13298e-10 0.00137294 6.56744e-14)
(-6.15094e-10 0.00137696 6.56742e-14)
(-6.1689e-10 0.00138098 6.56744e-14)
(-6.18686e-10 0.001385 6.56742e-14)
(-6.20481e-10 0.00138902 6.56744e-14)
(-6.22277e-10 0.00139304 6.56742e-14)
(-6.24073e-10 0.00139706 6.56744e-14)
(-6.25869e-10 0.00140108 6.56742e-14)
(-6.27665e-10 0.0014051 6.56744e-14)
(-6.29461e-10 0.00140912 6.56742e-14)
(-6.31257e-10 0.00141314 6.56744e-14)
(-6.33053e-10 0.00141716 6.56742e-14)
(-6.34849e-10 0.00142118 6.56744e-14)
(-6.36645e-10 0.0014252 6.56742e-14)
(-6.3844e-10 0.00142922 6.56744e-14)
(-6.40236e-10 0.00143324 6.56742e-14)
(-6.42032e-10 0.00143726 6.56744e-14)
(-6.43828e-10 0.00144128 6.56742e-14)
(-6.45624e-10 0.0014453 6.56744e-14)
(-6.4742e-10 0.00144932 6.56742e-14)
(-6.49216e-10 0.00145334 6.56744e-14)
(-6.51012e-10 0.00145736 6.56742e-14)
(-6.52808e-10 0.00146139 6.56744e-14)
(-6.54604e-10 0.00146541 6.56742e-14)
(-6.56399e-10 0.00146943 6.56744e-14)
(-6.58195e-10 0.00147345 6.56742e-14)
(-6.59991e-10 0.00147747 6.56744e-14)
(-6.61787e-10 0.00148149 6.56742e-14)
(-6.63583e-10 0.00148551 6.56744e-14)
(-6.65379e-10 0.00148953 6.56742e-14)
(-6.67175e-10 0.00149355 6.56744e-14)
(-6.68971e-10 0.00149757 6.56742e-14)
(-6.70767e-10 0.00150159 6.56744e-14)
(-6.72562e-10 0.00150561 6.56742e-14)
(-6.74358e-10 0.00150963 6.56744e-14)
(-6.76154e-10 0.00151365 6.56742e-14)
(-6.7795e-10 0.00151767 6.56744e-14)
(-6.79746e-10 0.00152169 6.56742e-14)
(-6.81542e-10 0.00152571 6.56744e-14)
(-6.83338e-10 0.00152973 6.56742e-14)
(-6.85134e-10 0.00153375 6.56744e-14)
(-6.8693e-10 0.00153777 6.56742e-14)
(-6.88726e-10 0.00154179 6.56744e-14)
(-6.90521e-10 0.00154581 6.56742e-14)
(-6.92317e-10 0.00154983 6.56744e-14)
(-6.94113e-10 0.00155385 6.56742e-14)
(-6.95909e-10 0.00155787 6.56744e-14)
(-6.97705e-10 0.00156189 6.56742e-14)
(-6.99501e-10 0.00156591 6.56744e-14)
(-7.01297e-10 0.00156993 6.56742e-14)
(-7.03093e-10 0.00157395 6.56744e-14)
(-7.04889e-10 0.00157797 6.56742e-14)
(-7.06685e-10 0.00158199 6.56743e-14)
(-7.0848e-10 0.00158601 6.56742e-14)
(-7.10276e-10 0.00159004 6.56743e-14)
(-7.12072e-10 0.00159406 6.56742e-14)
(-7.13868e-10 0.00159808 6.56743e-14)
(-7.15664e-10 0.0016021 6.56742e-14)
(-7.1746e-10 0.00160612 6.56744e-14)
(-7.19256e-10 0.00161014 6.56742e-14)
(-7.21052e-10 0.00161416 6.56743e-14)
(-7.22848e-10 0.00161818 6.56742e-14)
(-7.24643e-10 0.0016222 6.56743e-14)
(-7.26439e-10 0.00162622 6.56742e-14)
(-7.28235e-10 0.00163024 6.56743e-14)
(-7.30031e-10 0.00163426 6.56742e-14)
(-7.31827e-10 0.00163828 6.56743e-14)
(-7.33623e-10 0.0016423 6.56743e-14)
(-7.35419e-10 0.00164632 6.56743e-14)
(-7.37215e-10 0.00165034 6.56743e-14)
(-7.39011e-10 0.00165436 6.56743e-14)
(-7.40807e-10 0.00165838 6.56743e-14)
(-7.42602e-10 0.0016624 6.56744e-14)
(-7.44398e-10 0.00166642 6.56743e-14)
(-7.46194e-10 0.00167044 6.56743e-14)
(-7.4799e-10 0.00167446 6.56742e-14)
(-7.49786e-10 0.00167848 6.56743e-14)
(-7.51582e-10 0.0016825 6.56743e-14)
(-7.53378e-10 0.00168652 6.56743e-14)
(-7.55174e-10 0.00169054 6.56742e-14)
(-7.5697e-10 0.00169456 6.56743e-14)
(-7.58765e-10 0.00169858 6.56743e-14)
(-7.60561e-10 0.0017026 6.56743e-14)
(-7.62357e-10 0.00170662 6.56743e-14)
(-7.64153e-10 0.00171064 6.56743e-14)
(-7.65949e-10 0.00171466 6.56743e-14)
(-7.67745e-10 0.00171869 6.56743e-14)
(-7.69541e-10 0.00172271 6.56742e-14)
(-7.71337e-10 0.00172673 6.56743e-14)
(-7.73133e-10 0.00173075 6.56743e-14)
(-7.74929e-10 0.00173477 6.56743e-14)
(-7.76724e-10 0.00173879 6.56743e-14)
(-7.7852e-10 0.00174281 6.56743e-14)
(-7.80316e-10 0.00174683 6.56743e-14)
(-7.82112e-10 0.00175085 6.56743e-14)
(-7.83908e-10 0.00175487 6.56743e-14)
(-7.85704e-10 0.00175889 6.56743e-14)
(-7.875e-10 0.00176291 6.56743e-14)
(-7.89296e-10 0.00176693 6.56743e-14)
(-7.91092e-10 0.00177095 6.56743e-14)
(-7.92888e-10 0.00177497 6.56743e-14)
(-7.94683e-10 0.00177899 6.56743e-14)
(-7.96479e-10 0.00178301 6.56743e-14)
(-7.98275e-10 0.00178703 6.56743e-14)
(-8.00071e-10 0.00179105 6.56743e-14)
(-8.01867e-10 0.00179507 6.56742e-14)
(-8.03663e-10 0.00179909 6.56743e-14)
(-8.05459e-10 0.00180311 6.56743e-14)
(-8.07255e-10 0.00180713 6.56743e-14)
(-8.09051e-10 0.00181115 6.56743e-14)
(-8.10846e-10 0.00181517 6.56743e-14)
(-8.12642e-10 0.00181919 6.56743e-14)
(-8.14438e-10 0.00182321 6.56743e-14)
(-8.16234e-10 0.00182723 6.56743e-14)
(-8.1803e-10 0.00183125 6.56743e-14)
(-8.19826e-10 0.00183527 6.56743e-14)
(-8.21622e-10 0.00183929 6.56743e-14)
(-8.23418e-10 0.00184331 6.56743e-14)
(-8.25214e-10 0.00184734 6.56743e-14)
(-8.2701e-10 0.00185136 6.56743e-14)
(-8.28805e-10 0.00185538 6.56743e-14)
(-8.30601e-10 0.0018594 6.56742e-14)
(-8.32397e-10 0.00186342 6.56743e-14)
(-8.34193e-10 0.00186744 6.56743e-14)
(-8.35989e-10 0.00187146 6.56743e-14)
(-8.37785e-10 0.00187548 6.56743e-14)
(-8.39581e-10 0.0018795 6.56743e-14)
(-8.41377e-10 0.00188352 6.56742e-14)
(-8.43173e-10 0.00188754 6.56743e-14)
(-8.44969e-10 0.00189156 6.56743e-14)
(-8.46764e-10 0.00189558 6.56743e-14)
(-8.4856e-10 0.0018996 6.56742e-14)
(-8.50356e-10 0.00190362 6.56743e-14)
(-8.52152e-10 0.00190764 6.56742e-14)
(-8.53948e-10 0.00191166 6.56743e-14)
(-8.55744e-10 0.00191568 6.56743e-14)
(-8.5754e-10 0.0019197 6.56743e-14)
(-8.59336e-10 0.00192372 6.56743e-14)
(-8.61132e-10 0.00192774 6.56743e-14)
(-8.62927e-10 0.00193176 6.56743e-14)
(-8.64723e-10 0.00193578 6.56743e-14)
(-8.66519e-10 0.0019398 6.56743e-14)
(-8.68315e-10 0.00194382 6.56743e-14)
(-8.70111e-10 0.00194784 6.56743e-14)
(-8.71907e-10 0.00195186 6.56743e-14)
(-8.73703e-10 0.00195588 6.56743e-14)
(-8.75499e-10 0.0019599 6.56743e-14)
(-8.77295e-10 0.00196392 6.56743e-14)
(-8.79091e-10 0.00196794 6.56743e-14)
(-8.80886e-10 0.00197197 6.56743e-14)
(-8.82682e-10 0.00197599 6.56743e-14)
(-8.84478e-10 0.00198001 6.56743e-14)
(-8.86274e-10 0.00198403 6.56743e-14)
(-8.8807e-10 0.00198805 6.56743e-14)
(-8.89866e-10 0.00199207 6.56743e-14)
(-8.91662e-10 0.00199609 6.56743e-14)
(-8.93458e-10 0.00200011 6.56743e-14)
(-8.95254e-10 0.00200413 6.56743e-14)
(-8.97049e-10 0.00200815 6.56743e-14)
(-8.98845e-10 0.00201217 6.56743e-14)
(-9.00641e-10 0.00201619 6.56743e-14)
(-9.02437e-10 0.00202021 6.56743e-14)
(-9.04233e-10 0.00202423 6.56743e-14)
(-9.06029e-10 0.00202825 6.56743e-14)
(-9.07825e-10 0.00203227 6.56743e-14)
(-9.09621e-10 0.00203629 6.56743e-14)
(-9.11417e-10 0.00204031 6.56743e-14)
(-9.13213e-10 0.00204433 6.56743e-14)
(-9.15008e-10 0.00204835 6.56743e-14)
(-9.16804e-10 0.00205237 6.56743e-14)
(-9.186e-10 0.00205639 6.56743e-14)
(-9.20396e-10 0.00206041 6.56743e-14)
(-9.22192e-10 0.00206443 6.56743e-14)
(-9.23988e-10 0.00206845 6.56743e-14)
(-9.25784e-10 0.00207247 6.56743e-14)
(-9.2758e-10 0.00207649 6.56742e-14)
(-9.29376e-10 0.00208051 6.56743e-14)
(-9.31172e-10 0.00208453 6.56743e-14)
(-9.32967e-10 0.00208855 6.56743e-14)
(-9.34763e-10 0.00209257 6.56743e-14)
(-9.36559e-10 0.00209659 6.56743e-14)
(-9.38355e-10 0.00210062 6.56743e-14)
(-9.40151e-10 0.00210464 6.56743e-14)
(-9.41947e-10 0.00210866 6.56743e-14)
(-9.43743e-10 0.00211268 6.56743e-14)
(-9.45539e-10 0.0021167 6.56743e-14)
(-9.47335e-10 0.00212072 6.56743e-14)
(-9.4913e-10 0.00212474 6.56743e-14)
(-9.50926e-10 0.00212876 6.56743e-14)
(-9.52722e-10 0.00213278 6.56743e-14)
(-9.54518e-10 0.0021368 6.56743e-14)
(-9.56314e-10 0.00214082 6.56743e-14)
(-9.5811e-10 0.00214484 6.56743e-14)
(-9.59906e-10 0.00214886 6.56743e-14)
(-9.61702e-10 0.00215288 6.56743e-14)
(-9.63498e-10 0.0021569 6.56743e-14)
(-9.65294e-10 0.00216092 6.56743e-14)
(-9.67089e-10 0.00216494 6.56743e-14)
(-9.68885e-10 0.00216896 6.56743e-14)
(-9.70681e-10 0.00217298 6.56743e-14)
(-9.72477e-10 0.002177 6.56743e-14)
(-9.74273e-10 0.00218102 6.56743e-14)
(-9.76069e-10 0.00218504 6.56743e-14)
(-9.77865e-10 0.00218906 6.56743e-14)
(-9.79661e-10 0.00219308 6.56743e-14)
(-9.81457e-10 0.0021971 6.56743e-14)
(-9.83252e-10 0.00220112 6.56743e-14)
(-9.85048e-10 0.00220514 6.56743e-14)
(-9.86844e-10 0.00220916 6.56743e-14)
(-9.8864e-10 0.00221318 6.56743e-14)
(-9.90436e-10 0.0022172 6.56743e-14)
(-9.92232e-10 0.00222122 6.56743e-14)
(-9.94028e-10 0.00222524 6.56743e-14)
(-9.95824e-10 0.00222927 6.56743e-14)
(-9.9762e-10 0.00223329 6.56743e-14)
(-9.99416e-10 0.00223731 6.56743e-14)
(-1.00121e-09 0.00224133 6.56743e-14)
(-1.00301e-09 0.00224535 6.56743e-14)
(-1.0048e-09 0.00224937 6.56743e-14)
(-1.0066e-09 0.00225339 6.56743e-14)
(-1.0084e-09 0.00225741 6.56743e-14)
(-1.01019e-09 0.00226143 6.56743e-14)
(-1.01199e-09 0.00226545 6.56743e-14)
(-1.01378e-09 0.00226947 6.56742e-14)
(-1.01558e-09 0.00227349 6.56743e-14)
(-1.01737e-09 0.00227751 6.56743e-14)
(-1.01917e-09 0.00228153 6.56743e-14)
(-1.02097e-09 0.00228555 6.56742e-14)
(-1.02276e-09 0.00228957 6.56743e-14)
(-1.02456e-09 0.00229359 6.56743e-14)
(-1.02635e-09 0.00229761 6.56743e-14)
(-1.02815e-09 0.00230163 6.56743e-14)
(-1.02995e-09 0.00230565 6.56743e-14)
(-1.03174e-09 0.00230967 6.56743e-14)
(-1.03354e-09 0.00231369 6.56743e-14)
(-1.03533e-09 0.00231771 6.56743e-14)
(-1.03713e-09 0.00232173 6.56743e-14)
(-1.03893e-09 0.00232575 6.56743e-14)
(-1.04072e-09 0.00232977 6.56743e-14)
(-1.04252e-09 0.00233379 6.56743e-14)
(-1.04431e-09 0.00233781 6.56743e-14)
(-1.04611e-09 0.00234183 6.56743e-14)
(-1.0479e-09 0.00234585 6.56743e-14)
(-1.0497e-09 0.00234987 6.56743e-14)
(-1.0515e-09 0.00235389 6.56743e-14)
(-1.05329e-09 0.00235792 6.56743e-14)
(-1.05509e-09 0.00236194 6.56743e-14)
(-1.05688e-09 0.00236596 6.56743e-14)
(-1.05868e-09 0.00236998 6.56743e-14)
(-1.06048e-09 0.002374 6.56743e-14)
(-1.06227e-09 0.00237802 6.56743e-14)
(-1.06407e-09 0.00238204 6.56743e-14)
(-1.06586e-09 0.00238606 6.56743e-14)
(-1.06766e-09 0.00239008 6.56743e-14)
(-1.06946e-09 0.0023941 6.56743e-14)
(-1.07125e-09 0.00239812 6.56743e-14)
(-1.07305e-09 0.00240214 6.56743e-14)
(-1.07484e-09 0.00240616 6.56743e-14)
(-1.07664e-09 0.00241018 6.56743e-14)
(-1.07843e-09 0.0024142 6.56743e-14)
(-1.08023e-09 0.00241822 6.56743e-14)
(-1.08203e-09 0.00242224 6.56743e-14)
(-1.08382e-09 0.00242626 6.56743e-14)
(-1.08562e-09 0.00243028 6.56743e-14)
(-1.08741e-09 0.0024343 6.56743e-14)
(-1.08921e-09 0.00243832 6.56743e-14)
(-1.09101e-09 0.00244234 6.56743e-14)
(-1.0928e-09 0.00244636 6.56742e-14)
(-1.0946e-09 0.00245038 6.56743e-14)
(-1.09639e-09 0.0024544 6.56743e-14)
(-1.09819e-09 0.00245842 6.56743e-14)
(-1.09999e-09 0.00246244 6.56743e-14)
(-1.10178e-09 0.00246646 6.56743e-14)
(-1.10358e-09 0.00247048 6.56742e-14)
(-1.10537e-09 0.0024745 6.56743e-14)
(-1.10717e-09 0.00247852 6.56742e-14)
(-1.10897e-09 0.00248254 6.56743e-14)
(-1.11076e-09 0.00248657 6.56743e-14)
(-1.11256e-09 0.00249059 6.56743e-14)
(-1.11435e-09 0.00249461 6.56742e-14)
(-1.11615e-09 0.00249863 6.56743e-14)
(-1.11794e-09 0.00250265 6.56742e-14)
(-1.11974e-09 0.00250667 6.56743e-14)
(-1.12154e-09 0.00251069 6.56743e-14)
(-1.12333e-09 0.00251471 6.56743e-14)
(-1.12513e-09 0.00251873 6.56743e-14)
(-1.12692e-09 0.00252275 6.56743e-14)
(-1.12872e-09 0.00252677 6.56743e-14)
(-1.13052e-09 0.00253079 6.56743e-14)
(-1.13231e-09 0.00253481 6.56742e-14)
(-1.13411e-09 0.00253883 6.56743e-14)
(-1.1359e-09 0.00254285 6.56743e-14)
(-1.1377e-09 0.00254687 6.56743e-14)
(-1.1395e-09 0.00255089 6.56742e-14)
(-1.14129e-09 0.00255491 6.56743e-14)
(-1.14309e-09 0.00255893 6.56743e-14)
(-1.14488e-09 0.00256295 6.56743e-14)
(-1.14668e-09 0.00256697 6.56743e-14)
(-1.14847e-09 0.00257099 6.56743e-14)
(-1.15027e-09 0.00257501 6.56742e-14)
(-1.15207e-09 0.00257903 6.56743e-14)
(-1.15386e-09 0.00258305 6.56742e-14)
(-1.15566e-09 0.00258707 6.56743e-14)
(-1.15745e-09 0.00259109 6.56743e-14)
(-1.15925e-09 0.00259511 6.56743e-14)
(-1.16105e-09 0.00259913 6.56742e-14)
(-1.16284e-09 0.00260315 6.56743e-14)
(-1.16464e-09 0.00260717 6.56743e-14)
(-1.16643e-09 0.00261119 6.56743e-14)
(-1.16823e-09 0.00261522 6.56743e-14)
(-1.17003e-09 0.00261924 6.56743e-14)
(-1.17182e-09 0.00262326 6.56743e-14)
(-1.17362e-09 0.00262728 6.56743e-14)
(-1.17541e-09 0.0026313 6.56743e-14)
(-1.17721e-09 0.00263532 6.56743e-14)
(-1.17901e-09 0.00263934 6.56742e-14)
(-1.1808e-09 0.00264336 6.56743e-14)
(-1.1826e-09 0.00264738 6.56743e-14)
(-1.18439e-09 0.0026514 6.56743e-14)
(-1.18619e-09 0.00265542 6.56742e-14)
(-1.18798e-09 0.00265944 6.56743e-14)
(-1.18978e-09 0.00266346 6.56743e-14)
(-1.19158e-09 0.00266748 6.56743e-14)
(-1.19337e-09 0.0026715 6.56742e-14)
(-1.19517e-09 0.00267552 6.56743e-14)
(-1.19696e-09 0.00267954 6.56742e-14)
(-1.19876e-09 0.00268356 6.56743e-14)
(-1.20056e-09 0.00268758 6.56742e-14)
(-1.20235e-09 0.0026916 6.56743e-14)
(-1.20415e-09 0.00269562 6.56742e-14)
(-1.20594e-09 0.00269964 6.56743e-14)
(-1.20774e-09 0.00270366 6.56743e-14)
(-1.20954e-09 0.00270768 6.56743e-14)
(-1.21133e-09 0.0027117 6.56743e-14)
(-1.21313e-09 0.00271572 6.56743e-14)
(-1.21492e-09 0.00271974 6.56743e-14)
(-1.21672e-09 0.00272376 6.56743e-14)
(-1.21851e-09 0.00272778 6.56742e-14)
(-1.22031e-09 0.0027318 6.56743e-14)
(-1.22211e-09 0.00273582 6.56743e-14)
(-1.2239e-09 0.00273984 6.56743e-14)
(-1.2257e-09 0.00274387 6.56742e-14)
(-1.22749e-09 0.00274789 6.56743e-14)
(-1.22929e-09 0.00275191 6.56743e-14)
(-1.23109e-09 0.00275593 6.56743e-14)
(-1.23288e-09 0.00275995 6.56742e-14)
(-1.23468e-09 0.00276397 6.56743e-14)
(-1.23647e-09 0.00276799 6.56742e-14)
(-1.23827e-09 0.00277201 6.56743e-14)
(-1.24007e-09 0.00277603 6.56742e-14)
(-1.24186e-09 0.00278005 6.56743e-14)
(-1.24366e-09 0.00278407 6.56743e-14)
(-1.24545e-09 0.00278809 6.56743e-14)
(-1.24725e-09 0.00279211 6.56743e-14)
(-1.24905e-09 0.00279613 6.56743e-14)
(-1.25084e-09 0.00280015 6.56742e-14)
(-1.25264e-09 0.00280417 6.56743e-14)
(-1.25443e-09 0.00280819 6.56743e-14)
(-1.25623e-09 0.00281221 6.56743e-14)
(-1.25802e-09 0.00281623 6.56742e-14)
(-1.25982e-09 0.00282025 6.56743e-14)
(-1.26162e-09 0.00282427 6.56742e-14)
(-1.26341e-09 0.00282829 6.56743e-14)
(-1.26521e-09 0.00283231 6.56742e-14)
(-1.267e-09 0.00283633 6.56743e-14)
(-1.2688e-09 0.00284035 6.56743e-14)
(-1.2706e-09 0.00284437 6.56743e-14)
(-1.27239e-09 0.00284839 6.56742e-14)
(-1.27419e-09 0.00285241 6.56743e-14)
(-1.27598e-09 0.00285643 6.56742e-14)
(-1.27778e-09 0.00286045 6.56743e-14)
(-1.27958e-09 0.00286447 6.56742e-14)
(-1.28137e-09 0.00286849 6.56743e-14)
(-1.28317e-09 0.00287252 6.56743e-14)
(-1.28496e-09 0.00287654 6.56743e-14)
(-1.28676e-09 0.00288056 6.56742e-14)
(-1.28855e-09 0.00288458 6.56743e-14)
(-1.29035e-09 0.0028886 6.56742e-14)
(-1.29215e-09 0.00289262 6.56743e-14)
(-1.29394e-09 0.00289664 6.56742e-14)
(-1.29574e-09 0.00290066 6.56743e-14)
(-1.29753e-09 0.00290468 6.56742e-14)
(-1.29933e-09 0.0029087 6.56743e-14)
(-1.30113e-09 0.00291272 6.56742e-14)
(-1.30292e-09 0.00291674 6.56743e-14)
(-1.30472e-09 0.00292076 6.56742e-14)
(-1.30651e-09 0.00292478 6.56743e-14)
(-1.30831e-09 0.0029288 6.56742e-14)
(-1.31011e-09 0.00293282 6.56743e-14)
(-1.3119e-09 0.00293684 6.56742e-14)
(-1.3137e-09 0.00294086 6.56743e-14)
(-1.31549e-09 0.00294488 6.56742e-14)
(-1.31729e-09 0.0029489 6.56743e-14)
(-1.31909e-09 0.00295292 6.56742e-14)
(-1.32088e-09 0.00295694 6.56744e-14)
(-1.32268e-09 0.00296096 6.56742e-14)
(-1.32447e-09 0.00296498 6.56743e-14)
(-1.32627e-09 0.002969 6.56742e-14)
(-1.32806e-09 0.00297302 6.56743e-14)
(-1.32986e-09 0.00297704 6.56742e-14)
(-1.33166e-09 0.00298106 6.56743e-14)
(-1.33345e-09 0.00298508 6.56742e-14)
(-1.33525e-09 0.0029891 6.56743e-14)
(-1.33704e-09 0.00299312 6.56742e-14)
(-1.33884e-09 0.00299715 6.56743e-14)
(-1.34064e-09 0.00300117 6.56742e-14)
(-1.34243e-09 0.00300519 6.56743e-14)
(-1.34423e-09 0.00300921 6.56742e-14)
(-1.34602e-09 0.00301323 6.56743e-14)
(-1.34782e-09 0.00301725 6.56742e-14)
(-1.34962e-09 0.00302127 6.56743e-14)
(-1.35141e-09 0.00302529 6.56742e-14)
(-1.35321e-09 0.00302931 6.56743e-14)
(-1.355e-09 0.00303333 6.56742e-14)
(-1.3568e-09 0.00303735 6.56744e-14)
(-1.35859e-09 0.00304137 6.56742e-14)
(-1.36039e-09 0.00304539 6.56743e-14)
(-1.36219e-09 0.00304941 6.56742e-14)
(-1.36398e-09 0.00305343 6.56744e-14)
(-1.36578e-09 0.00305745 6.56742e-14)
(-1.36757e-09 0.00306147 6.56743e-14)
(-1.36937e-09 0.00306549 6.56742e-14)
(-1.37117e-09 0.00306951 6.56743e-14)