/*--------------------------------*- C++ -*----------------------------------*\
| =========                 |                                                 |
| \\      /  F ield         | OpenFOAM: The Open Source CFD Toolbox           |
|  \\    /   O peration     | Version:  2206                                  |
|   \\  /    A nd           | Website:  www.openfoam.com                      |
|    \\/     M anipulation  |                                                 |
\*---------------------------------------------------------------------------*/
FoamFile
{
    version     2.0;
    format      ascii;
    arch        "LSB;label=32;scalar=64";
    class       volScalarField;
    location    "5000";
    object      p;
}
// * * * * * * * * * * * * * * * * * * * * * * * * * * * * * * * * * * * * * //

dimensions      [0 2 -2 0 0 0 0];

internalField   nonuniform List<scalar> 
100
(
-9.06034912e-10
0.0390660161
0.0574747576
0.0750816308
0.088910724
0.100428371
0.110047921
0.118174773
0.125102482
0.131056744
0.136212487
0.140707063
0.144649513
0.148127292
0.151211195
0.153959028
0.156418362
0.158628637
0.160622767
0.162428401
0.164068898
0.165564104
0.166930964
0.168184022
0.169335813
0.170397189
0.171377584
0.17228523
0.173127334
0.173910232
0.17463951
0.175320108
0.175956406
0.176552304
0.177111277
0.177636436
0.178130567
0.178596174
0.179035513
0.179450621
0.179843338
0.180215334
0.180568123
0.180903084
0.181221473
0.181524437
0.181813024
0.182088195
0.182350831
0.182601741
0.182841669
0.183071302
0.183291273
0.183502165
0.183704519
0.183898836
0.18408558
0.184265182
0.184438041
0.184604532
0.184765
0.184919768
0.185069139
0.185213394
0.185352797
0.185487593
0.185618015
0.185744279
0.185866587
0.18598513
0.186100089
0.186211631
0.186319914
0.18642509
0.186527298
0.186626672
0.186723337
0.186817412
0.186909009
0.186998234
0.187085187
0.187169964
0.187252654
0.187333344
0.187412113
0.18748904
0.187564197
0.187637655
0.187709478
0.18777973
0.187848472
0.187915761
0.187981654
0.188046181
0.188109347
0.188171289
0.188232723
0.188294384
0.1883512
0.188384108
)
;

boundaryField
{
    left
    {
        type            wedge;
    }
    right
    {
        type            wedge;
    }
    outerWall
    {
        type            zeroGradient;
    }
    innerWall
    {
        type            zeroGradient;
    }
    frontAndBack
    {
        type            empty;
    }
}


// ************************************************************************* //
