/*--------------------------------*- C++ -*----------------------------------*\
| =========                 |                                                 |
| \\      /  F ield         | OpenFOAM: The Open Source CFD Toolbox           |
|  \\    /   O peration     | Version:  2206                                  |
|   \\  /    A nd           | Website:  www.openfoam.com                      |
|    \\/     M anipulation  |                                                 |
\*---------------------------------------------------------------------------*/
FoamFile
{
    version     2.0;
    format      ascii;
    arch        "LSB;label=32;scalar=64";
    class       surfaceScalarField;
    location    "5000";
    object      phi;
}
// * * * * * * * * * * * * * * * * * * * * * * * * * * * * * * * * * * * * * //

dimensions      [0 3 -1 0 0 0 0];

oriented        oriented;

internalField   nonuniform List<scalar> 
99
(
3.26843113e-10
6.28360384e-10
9.07861032e-10
1.16841667e-09
1.41243894e-09
1.64192129e-09
1.85850975e-09
2.06359485e-09
2.25834712e-09
2.44377753e-09
2.62074682e-09
2.7900141e-09
2.95222946e-09
3.1079785e-09
3.25776268e-09
3.40204484e-09
3.54121849e-09
3.67565688e-09
3.80567298e-09
3.93157403e-09
4.05361119e-09
4.17204189e-09
4.28706898e-09
4.39891206e-09
4.50773557e-09
4.61372981e-09
4.71702777e-09
4.81779749e-09
4.91614604e-09
5.01222375e-09
5.10611594e-09
5.1979595e-09
5.28782114e-09
5.37582711e-09
5.46202802e-09
5.54654208e-09
5.62940593e-09
5.71073142e-09
5.79054271e-09
5.86894708e-09
5.94595766e-09
6.02167812e-09
6.09611159e-09
6.16935939e-09
6.24141563e-09
6.31237979e-09
6.38223775e-09
6.45108809e-09
6.51890902e-09
6.58579867e-09
6.65172817e-09
6.71679568e-09
6.78096578e-09
6.84433694e-09
6.90686756e-09
6.96865691e-09
7.02965753e-09
7.08996973e-09
7.14954064e-09
7.20847151e-09
7.26670442e-09
7.32434179e-09
7.3813216e-09
7.43774641e-09
7.49355055e-09
7.54883733e-09
7.60353898e-09
7.65775676e-09
7.71142189e-09
7.76463417e-09
7.81732629e-09
7.86959242e-09
7.92136815e-09
7.97274304e-09
8.02365775e-09
8.07419319e-09
8.12429571e-09
8.17403976e-09
8.22337762e-09
8.27237562e-09
8.32099138e-09
8.36928573e-09
8.41722042e-09
8.46485098e-09
8.51214164e-09
8.55914553e-09
8.60582916e-09
8.65224125e-09
8.69835138e-09
8.74420401e-09
8.7897753e-09
8.83509946e-09
8.88016202e-09
8.9249873e-09
8.96956997e-09
9.01392526e-09
9.05805469e-09
9.10196667e-09
9.14566862e-09
)
;

boundaryField
{
    left
    {
        type            wedge;
        value           nonuniform List<scalar> 
100
(
1.34119675e-05
1.23727819e-05
1.14693834e-05
1.06919043e-05
1.00135246e-05
9.41679488e-06
8.88777875e-06
8.41563659e-06
7.99173103e-06
7.60908697e-06
7.26201167e-06
6.94581282e-06
6.65658829e-06
6.39106735e-06
6.14648739e-06
5.92049859e-06
5.71109079e-06
5.51653325e-06
5.33532777e-06
5.16617182e-06
5.00792676e-06
4.85959281e-06
4.72028938e-06
4.58923702e-06
4.46574328e-06
4.3491917e-06
4.23903092e-06
4.13476625e-06
4.03595338e-06
3.94219137e-06
3.85311748e-06
3.76840343e-06
3.68775074e-06
3.6108874e-06
3.53756565e-06
3.46755873e-06
3.40065867e-06
3.33667501e-06
3.27543234e-06
3.2167692e-06
3.16053638e-06
3.10659637e-06
3.05482171e-06
3.00509408e-06
2.95730403e-06
2.91134962e-06
2.86713582e-06
2.82457442e-06
2.78358296e-06
2.74408421e-06
2.70600631e-06
2.66928182e-06
2.63384735e-06
2.59964375e-06
2.56661535e-06
2.5347096e-06
2.50387742e-06
2.4740724e-06
2.44525064e-06
2.41737106e-06
2.39039468e-06
2.36428453e-06
2.33900595e-06
2.31452592e-06
2.2908133e-06
2.26783832e-06
2.24557309e-06
2.22399096e-06
2.20306647e-06
2.18277574e-06
2.16309587e-06
2.14400497e-06
2.12548245e-06
2.10750855e-06
2.09006431e-06
2.07313192e-06
2.05669422e-06
2.04073472e-06
2.02523791e-06
2.01018883e-06
1.99557305e-06
1.98137703e-06
1.96758766e-06
1.95419227e-06
1.94117894e-06
1.92853617e-06
1.91625275e-06
1.90431821e-06
1.8927223e-06
1.88145529e-06
1.87050765e-06
1.85987046e-06
1.84953502e-06
1.83949284e-06
1.829736e-06
1.82025671e-06
1.81104732e-06
1.80210069e-06
1.79340979e-06
1.78496645e-06
)
;
    }
    right
    {
        type            wedge;
        value           nonuniform List<scalar> 
100
(
-1.34122944e-05
-1.23730834e-05
-1.14696629e-05
-1.06921648e-05
-1.00137686e-05
-9.41702436e-06
-8.88799534e-06
-8.41584167e-06
-7.99192579e-06
-7.6092724e-06
-7.26218864e-06
-6.94598208e-06
-6.65675051e-06
-6.3912231e-06
-6.14663718e-06
-5.92064287e-06
-5.71122996e-06
-5.51666769e-06
-5.33545779e-06
-5.16629772e-06
-5.0080488e-06
-4.85971123e-06
-4.72040441e-06
-4.58934886e-06
-4.46585211e-06
-4.34929769e-06
-4.23913422e-06
-4.13486701e-06
-4.03605173e-06
-3.94228743e-06
-3.85321137e-06
-3.76849526e-06
-3.68784061e-06
-3.61097539e-06
-3.53765186e-06
-3.46764323e-06
-3.40074154e-06
-3.33675633e-06
-3.27551216e-06
-3.21684759e-06
-3.1606134e-06
-3.10667207e-06
-3.05489616e-06
-3.00516732e-06
-2.95737609e-06
-2.91142057e-06
-2.86720569e-06
-2.82464325e-06
-2.78365079e-06
-2.74415108e-06
-2.70607226e-06
-2.66934687e-06
-2.63391153e-06
-2.59970711e-06
-2.56667789e-06
-2.53477137e-06
-2.50393843e-06
-2.47413269e-06
-2.44531023e-06
-2.41742997e-06
-2.39045293e-06
-2.36434214e-06
-2.33906295e-06
-2.31458233e-06
-2.29086912e-06
-2.26789359e-06
-2.24562781e-06
-2.22404516e-06
-2.20312016e-06
-2.18282893e-06
-2.16314859e-06
-2.14405722e-06
-2.12553424e-06
-2.10755991e-06
-2.09011525e-06
-2.07318244e-06
-2.05674434e-06
-2.04078445e-06
-2.02528726e-06
-2.01023781e-06
-1.99562168e-06
-1.98142532e-06
-1.96763561e-06
-1.95423989e-06
-1.94122625e-06
-1.92858317e-06
-1.91629945e-06
-1.90436461e-06
-1.89276843e-06
-1.88150114e-06
-1.87055323e-06
-1.85991578e-06
-1.84958009e-06
-1.83953767e-06
-1.82978059e-06
-1.82030107e-06
-1.81109146e-06
-1.8021446e-06
-1.79345349e-06
-1.78500995e-06
)
;
    }
    outerWall
    {
        type            calculated;
        value           uniform 9.18916705e-09;
    }
    innerWall
    {
        type            calculated;
        value           uniform 0;
    }
    frontAndBack
    {
        type            empty;
        value           nonuniform List<scalar> 0();
    }
}


// ************************************************************************* //
