/*--------------------------------*- C++ -*----------------------------------*\
| =========                 |                                                 |
| \\      /  F ield         | OpenFOAM: The Open Source CFD Toolbox           |
|  \\    /   O peration     | Version:  2206                                  |
|   \\  /    A nd           | Website:  www.openfoam.com                      |
|    \\/     M anipulation  |                                                 |
\*---------------------------------------------------------------------------*/
FoamFile
{
    version     2.0;
    format      ascii;
    arch        "LSB;label=32;scalar=64";
    class       volVectorField;
    location    "5000";
    object      U;
}
// * * * * * * * * * * * * * * * * * * * * * * * * * * * * * * * * * * * * * //

dimensions      [0 1 -1 0 0 0 0];

internalField   nonuniform List<vector> 
100
(
(0.0121936432 0.596101972 0)
(-0.00387665976 0.549914817 0)
(0.000928987608 0.509762795 0)
(-0.000131649973 0.475207326 0)
(0.000101153402 0.445056384 0)
(8.50830271e-05 0.418534416 0)
(0.000103480478 0.395022015 0)
(0.000114383298 0.374037407 0)
(0.000123573066 0.355196701 0)
(0.000130960606 0.338189884 7.34809261e-20)
(0.000136945581 0.322763939 -7.7565986e-20)
(0.000141782792 0.308710313 0)
(0.000145680733 0.29585558 0)
(0.000148804617 0.284054362 8.70928814e-20)
(0.000151286808 0.27318387 0)
(0.000153234375 0.263139685 0)
(0.000154734551 0.253832444 0)
(0.000155858908 0.245185227 0)
(0.000156666515 0.237131459 0)
(0.000157206433 0.229613233 0)
(0.00015751958 0.222579943 0)
(0.000157640289 0.215987167 0)
(0.00015759745 0.209795753 0)
(0.000157415515 0.203971057 0)
(0.000157115218 0.198482317 0)
(0.000156714234 0.193302121 0)
(0.000156227632 0.188405962 0)
(0.000155668353 0.183771868 0)
(0.000155047487 0.179380078 0)
(0.000154374597 0.175212772 0)
(0.000153657915 0.17125384 0)
(0.000152904578 0.167488679 0)
(0.000152120745 0.163904024 0)
(0.000151311777 0.160487796 0)
(0.000150482306 0.157228972 0)
(0.000149636381 0.154117475 0)
(0.000148777506 0.15114407 0)
(0.00014790875 0.148300282 0)
(0.000147032766 0.145578319 0)
(0.000146151887 0.142971002 0)
(0.000145268128 0.140471707 0)
(0.00014438326 0.138074315 0)
(0.00014349881 0.13577316 0)
(0.000142616123 0.133562993 0)
(0.000141736353 0.131438938 0)
(0.000140860516 0.129396468 0)
(0.000139989477 0.127431365 0)
(0.000139124001 0.125539701 0)
(0.000138264731 0.123717811 0)
(0.000137412234 0.121962271 0)
(0.000136566981 0.120269879 0)
(0.000135729385 0.118637637 0)
(0.000134899784 0.117062735 0)
(0.000134078472 0.115542539 0)
(0.000133265682 0.114074571 0)
(0.000132461613 0.112656506 0)
(0.000131666418 0.111286153 0)
(0.000130880224 0.109961451 0)
(0.00013010312 0.108680455 0)
(0.000129335177 0.107441333 0)
(0.000128576431 0.106242351 0)
(0.00012782691 0.105081874 0)
(0.000127086615 0.103958354 0)
(0.000126355536 0.102870326 0)
(0.000125633642 0.101816404 0)
(0.000124920897 0.100795271 0)
(0.00012421726 0.0998056813 7.38676084e-20)
(0.000123522665 0.0988464498 0)
(0.000122837045 0.0979164522 0)
(0.000122160323 0.0970146197 0)
(0.000121492434 0.0961399356 0)
(0.000120833278 0.0952914325 7.06546287e-20)
(0.000120182772 0.0944681891 0)
(0.000119540814 0.0936693278 0)
(0.000118907328 0.0928940116 0)
(0.000118282196 0.0921414424 -6.82287593e-20)
(0.000117665327 0.0914108583 0)
(0.000117056604 0.0907015317 0)
(0.000116455944 0.0900127676 0)
(0.000115863222 0.0893439014 0)
(0.000115278342 0.0886942976 0)
(0.000114701188 0.088063348 0)
(0.000114131665 0.0874504703 0)
(0.000113569654 0.0868551067 -6.37510674e-20)
(0.00011301505 0.0862767228 0)
(0.000112467746 0.085714806 0)
(0.000111927658 0.085168865 0)
(0.000111394688 0.0846384278 6.16895972e-20)
(0.000110868639 0.0841230418 0)
(0.000110349001 0.0836222717 0)
(0.000109835741 0.0831356998 0)
(0.000109332926 0.0826629241 5.97386074e-20)
(0.00010884988 0.0822035582 0)
(0.000108366461 0.0817572303 0)
(0.000107739828 0.0813235822 0)
(0.000106832965 0.0809022684 5.78918407e-20)
(0.000106761576 0.0804929541 0)
(0.000111571017 0.0800953161 0)
(0.000119554457 0.0797090429 0)
(8.69888992e-05 0.0793337762 0)
)
;

boundaryField
{
    left
    {
        type            wedge;
    }
    right
    {
        type            wedge;
    }
    outerWall
    {
        type            navierSlip;
        value           uniform (0 0.0791559707 0);
        slipLength      uniform 1;
        wallVelocity    uniform (0 0 0);
    }
    innerWall
    {
        type            rotatingWallVelocity;
        origin          (0 0 0);
        axis            (0 0 1);
        omega           constant 12.566;
        value           uniform (0 0.628204307 -0);
    }
    frontAndBack
    {
        type            empty;
    }
}


// ************************************************************************* //
