/*--------------------------------*- C++ -*----------------------------------*\
| =========                 |                                                 |
| \\      /  F ield         | OpenFOAM: The Open Source CFD Toolbox           |
|  \\    /   O peration     | Version:  2206                                  |
|   \\  /    A nd           | Website:  www.openfoam.com                      |
|    \\/     M anipulation  |                                                 |
\*---------------------------------------------------------------------------*/
FoamFile
{
    version     2.0;
    format      ascii;
    arch        "LSB;label=32;scalar=64";
    class       volScalarField;
    location    "1500";
    object      p;
}
// * * * * * * * * * * * * * * * * * * * * * * * * * * * * * * * * * * * * * //

dimensions      [0 2 -2 0 0 0 0];

internalField   nonuniform List<scalar> 
100
(
-5.96715917e-09
0.0388018326
0.0568636944
0.0740048571
0.0873363108
0.0983255963
0.107408305
0.114998855
0.121398012
0.126836036
0.131490765
0.135501296
0.138977603
0.142007507
0.144661779
0.146997933
0.149063069
0.150896038
0.152529099
0.153989206
0.155299005
0.156477634
0.157541338
0.158503984
0.15937745
0.160171964
0.160896359
0.1615583
0.162164457
0.162720657
0.163232003
0.163702984
0.164137553
0.164539207
0.164911042
0.165255815
0.165575974
0.16587371
0.166150981
0.166409545
0.166650977
0.166876701
0.167087996
0.167286022
0.167471825
0.167646359
0.167810484
0.167964988
0.168110584
0.168247928
0.168377614
0.16850019
0.168616155
0.168725968
0.16883005
0.168928791
0.169022544
0.169111641
0.169196384
0.169277055
0.169353912
0.169427196
0.169497127
0.169563916
0.16962775
0.16968881
0.169747259
0.169803255
0.169856937
0.169908443
0.169957894
0.17000541
0.170051099
0.170095063
0.170137396
0.170178191
0.170217528
0.170255488
0.170292144
0.170327566
0.170361819
0.170394965
0.17042706
0.17045816
0.170488315
0.170517574
0.170545983
0.170573585
0.17060042
0.170626528
0.170651943
0.170676702
0.170700837
0.170724372
0.17074732
0.170769749
0.170791928
0.170814083
0.17083435
0.170846127
)
;

boundaryField
{
    left
    {
        type            wedge;
    }
    right
    {
        type            wedge;
    }
    outerWall
    {
        type            zeroGradient;
    }
    innerWall
    {
        type            zeroGradient;
    }
    frontAndBack
    {
        type            empty;
    }
}


// ************************************************************************* //
