/*--------------------------------*- C++ -*----------------------------------*\
| =========                 |                                                 |
| \\      /  F ield         | OpenFOAM: The Open Source CFD Toolbox           |
|  \\    /   O peration     | Version:  2206                                  |
|   \\  /    A nd           | Website:  www.openfoam.com                      |
|    \\/     M anipulation  |                                                 |
\*---------------------------------------------------------------------------*/
FoamFile
{
    version     2.0;
    format      ascii;
    arch        "LSB;label=32;scalar=64";
    class       surfaceScalarField;
    location    "1500";
    object      phi;
}
// * * * * * * * * * * * * * * * * * * * * * * * * * * * * * * * * * * * * * //

dimensions      [0 3 -1 0 0 0 0];

oriented        oriented;

internalField   nonuniform List<scalar> 
99
(
1.41318851e-10
2.71127344e-10
3.90904689e-10
5.02041459e-10
6.05597141e-10
7.02492457e-10
7.93443276e-10
8.79108595e-10
9.59987055e-10
1.03657433e-09
1.10922339e-09
1.17832502e-09
1.24412932e-09
1.30695721e-09
1.36698176e-09
1.42447941e-09
1.47956315e-09
1.53247975e-09
1.58329269e-09
1.63223294e-09
1.67932145e-09
1.72478065e-09
1.76859328e-09
1.81098188e-09
1.85189436e-09
1.89155677e-09
1.92988365e-09
1.96711115e-09
2.00312197e-09
2.0381636e-09
2.07208755e-09
2.10515752e-09
2.13719451e-09
2.16847875e-09
2.19880104e-09
2.22846162e-09
2.25722171e-09
2.28540114e-09
2.31273183e-09
2.33955578e-09
2.36557607e-09
2.3911563e-09
2.41597116e-09
2.44040717e-09
2.46411131e-09
2.48749223e-09
2.51016994e-09
2.53257595e-09
2.55430366e-09
2.57580727e-09
2.59665489e-09
2.6173217e-09
2.63735173e-09
2.65724085e-09
2.67651201e-09
2.69567777e-09
2.7142413e-09
2.73273298e-09
2.75064101e-09
2.76850435e-09
2.78579916e-09
2.80307469e-09
2.81980281e-09
2.83652951e-09
2.85272554e-09
2.86893833e-09
2.88464548e-09
2.90037843e-09
2.91562542e-09
2.93090808e-09
2.94573193e-09
2.9605941e-09
2.97501842e-09
2.98948699e-09
3.00354532e-09
3.01764702e-09
3.03135841e-09
3.0451164e-09
3.05851085e-09
3.071948e-09
3.08504029e-09
3.09817538e-09
3.11099557e-09
3.12384822e-09
3.13641079e-09
3.14899754e-09
3.16133235e-09
3.17367305e-09
3.18579418e-09
3.19790733e-09
3.20984189e-09
3.22174635e-09
3.23350601e-09
3.24521877e-09
3.25681974e-09
3.26836127e-09
3.27981719e-09
3.29120299e-09
3.30253061e-09
)
;

boundaryField
{
    left
    {
        type            wedge;
        value           nonuniform List<scalar> 
100
(
1.3383113e-05
1.2293861e-05
1.13447394e-05
1.05252915e-05
9.80840974e-06
9.17627937e-06
8.61466432e-06
8.11245252e-06
7.66076153e-06
7.25239874e-06
6.88147742e-06
6.54313256e-06
6.23330782e-06
5.94859426e-06
5.68610574e-06
5.44338194e-06
5.21831353e-06
5.00908077e-06
4.81410538e-06
4.63201266e-06
4.46159888e-06
4.30180548e-06
4.15169863e-06
4.01045069e-06
3.87732549e-06
3.75166683e-06
3.63288723e-06
3.52045915e-06
3.41390829e-06
3.31280635e-06
3.21676567e-06
3.12543511e-06
3.0384953e-06
2.95565514e-06
2.87664932e-06
2.80123499e-06
2.72918946e-06
2.66030868e-06
2.59440478e-06
2.53130482e-06
2.47084907e-06
2.41289026e-06
2.35729196e-06
2.30392761e-06
2.25268006e-06
2.20344034e-06
2.15610692e-06
2.11058552e-06
2.06678808e-06
2.02463226e-06
1.98404134e-06
1.94494344e-06
1.90727107e-06
1.87096122e-06
1.83595464e-06
1.80219553e-06
1.76963166e-06
1.73821375e-06
1.70789529e-06
1.67863263e-06
1.65038448e-06
1.62311173e-06
1.59677765e-06
1.57134733e-06
1.54678781e-06
1.52306773e-06
1.50015757e-06
1.47802921e-06
1.45665587e-06
1.4360123e-06
1.4160744e-06
1.39681916e-06
1.37822486e-06
1.36027071e-06
1.34293684e-06
1.32620443e-06
1.31005549e-06
1.29447273e-06
1.2794398e-06
1.264941e-06
1.25096123e-06
1.2374862e-06
1.22450217e-06
1.21199587e-06
1.19995476e-06
1.18836673e-06
1.17722008e-06
1.16650375e-06
1.156207e-06
1.14631957e-06
1.1368315e-06
1.12773332e-06
1.11901588e-06
1.11067019e-06
1.10268767e-06
1.09505964e-06
1.08777697e-06
1.0808295e-06
1.0742043e-06
1.06788058e-06
)
;
    }
    right
    {
        type            wedge;
        value           nonuniform List<scalar> 
100
(
-1.33832543e-05
-1.22939908e-05
-1.13448592e-05
-1.05254027e-05
-9.8085133e-06
-9.17637625e-06
-8.61475528e-06
-8.11253817e-06
-7.66084242e-06
-7.25247531e-06
-6.88155007e-06
-6.54320164e-06
-6.23337364e-06
-5.94865707e-06
-5.68616577e-06
-5.44343941e-06
-5.21836863e-06
-5.00913365e-06
-4.8141562e-06
-4.63206156e-06
-4.46164599e-06
-4.3018509e-06
-4.15174247e-06
-4.01049303e-06
-3.87736643e-06
-3.75170644e-06
-3.63292558e-06
-3.52049632e-06
-3.41394433e-06
-3.31284133e-06
-3.21679964e-06
-3.12546811e-06
-3.03852738e-06
-2.95568635e-06
-2.87667969e-06
-2.80126456e-06
-2.72921828e-06
-2.66033677e-06
-2.59443217e-06
-2.53133155e-06
-2.47087516e-06
-2.41291574e-06
-2.35731685e-06
-2.30395193e-06
-2.25270384e-06
-2.2034636e-06
-2.15612968e-06
-2.1106078e-06
-2.06680991e-06
-2.02465364e-06
-1.98406229e-06
-1.94496397e-06
-1.90729121e-06
-1.87098098e-06
-1.83597403e-06
-1.80221456e-06
-1.76965034e-06
-1.73823211e-06
-1.70791333e-06
-1.67865036e-06
-1.65040191e-06
-1.62312887e-06
-1.59679451e-06
-1.57136392e-06
-1.54680414e-06
-1.52308381e-06
-1.50017341e-06
-1.47804481e-06
-1.45667125e-06
-1.43602746e-06
-1.41608935e-06
-1.39683391e-06
-1.37823941e-06
-1.36028508e-06
-1.34295101e-06
-1.32621844e-06
-1.31006933e-06
-1.2944864e-06
-1.27945331e-06
-1.26495435e-06
-1.25097443e-06
-1.23749927e-06
-1.2245151e-06
-1.21200867e-06
-1.19996743e-06
-1.18837927e-06
-1.17723251e-06
-1.16651607e-06
-1.15621921e-06
-1.14633168e-06
-1.1368435e-06
-1.12774523e-06
-1.11902769e-06
-1.11068192e-06
-1.10269931e-06
-1.0950712e-06
-1.08778845e-06
-1.08084091e-06
-1.07421564e-06
-1.06789185e-06
)
;
    }
    outerWall
    {
        type            calculated;
        value           uniform 3.31380559e-09;
    }
    innerWall
    {
        type            calculated;
        value           uniform 0;
    }
    frontAndBack
    {
        type            empty;
        value           nonuniform List<scalar> 0();
    }
}


// ************************************************************************* //
