/*--------------------------------*- C++ -*----------------------------------*\
| =========                 |                                                 |
| \\      /  F ield         | OpenFOAM: The Open Source CFD Toolbox           |
|  \\    /   O peration     | Version:  2206                                  |
|   \\  /    A nd           | Website:  www.openfoam.com                      |
|    \\/     M anipulation  |                                                 |
\*---------------------------------------------------------------------------*/
FoamFile
{
    version     2.0;
    format      ascii;
    arch        "LSB;label=32;scalar=64";
    class       volVectorField;
    location    "1500";
    object      U;
}
// * * * * * * * * * * * * * * * * * * * * * * * * * * * * * * * * * * * * * //

dimensions      [0 1 -1 0 0 0 0];

internalField   nonuniform List<vector> 
100
(
(0.012188235 0.594811302 0)
(-0.00390399752 0.546399593 0)
(0.000878976972 0.504215963 0)
(-0.000181271922 0.467795674 0)
(3.7803115e-05 0.435933924 0)
(1.69441617e-05 0.407838944 0)
(2.95976957e-05 0.382878012 0)
(3.62534282e-05 0.360557251 0)
(4.19446102e-05 0.340481885 0)
(4.64999782e-05 0.322332236 7.34593532e-20)
(5.01914433e-05 0.30584667 -7.7559906e-20)
(5.31782571e-05 0.290808961 0)
(5.55918792e-05 0.27703883 0)
(5.7535509e-05 0.26438476 8.71126341e-20)
(5.90912814e-05 0.252718475 0)
(6.03253653e-05 0.241930642 0)
(6.12912563e-05 0.231927496 0)
(6.20327096e-05 0.222628159 0)
(6.25855631e-05 0.213962499 0)
(6.29795958e-05 0.205869404 0)
(6.32394318e-05 0.198295374 0)
(6.33857608e-05 0.191193374 0)
(6.34358041e-05 0.184521889 0)
(6.3404237e-05 0.178244132 0)
(6.33033367e-05 0.172327398 0)
(6.31436481e-05 0.16674251 0)
(6.29339995e-05 0.161463357 0)
(6.26820994e-05 0.156466504 0)
(6.23944029e-05 0.15173086 0)
(6.2076576e-05 0.14723739 0)
(6.17333453e-05 0.142968874 0)
(6.13689434e-05 0.138909695 0)
(6.09868819e-05 0.135045659 0)
(6.05903224e-05 0.131363839 0)
(6.01818609e-05 0.127852432 0)
(5.97638941e-05 0.124500645 0)
(5.93383696e-05 0.121298591 0)
(5.89070953e-05 0.11823719 0)
(5.8471512e-05 0.115308097 0)
(5.80330043e-05 0.112503623 0)
(5.75926549e-05 0.109816675 0)
(5.71515139e-05 0.1072407 0)
(5.67103775e-05 0.104769636 0)
(5.62700517e-05 0.102397864 0)
(5.58311284e-05 0.100120171 0)
(5.53942165e-05 0.097931714 0)
(5.49597431e-05 0.0958279864 0)
(5.45281742e-05 0.0938047919 0)
(5.40998157e-05 0.0918582165 0)
(5.36750214e-05 0.0899846066 0)
(5.32540093e-05 0.0881805469 0)
(5.28370367e-05 0.0864428419 0)
(5.2424245e-05 0.0847684986 0)
(5.20158244e-05 0.0831547107 0)
(5.16118777e-05 0.0815988443 0)
(5.12125274e-05 0.0800984252 0)
(5.08178215e-05 0.0786511267 0)
(5.04278537e-05 0.077254759 0)
(5.00426757e-05 0.0759072594 0)
(4.96623152e-05 0.074606683 0)
(4.92867739e-05 0.0733511947 0)
(4.8916069e-05 0.0721390614 0)
(4.85502377e-05 0.0709686452 0)
(4.8189235e-05 0.0698383968 0)
(4.78330472e-05 0.0687468495 0)
(4.74816447e-05 0.0676926143 0)
(4.71350692e-05 0.0666743741 7.09446155e-20)
(4.67932254e-05 0.0656908796 0)
(4.64561001e-05 0.0647409448 0)
(4.6123618e-05 0.0638234431 0)
(4.57958175e-05 0.0629373036 0)
(4.54725761e-05 0.0620815075 6.76004097e-20)
(4.51538806e-05 0.0612550853 0)
(4.48396441e-05 0.0604571135 0)
(4.4529901e-05 0.0596867121 0)
(4.42245202e-05 0.058943042 -6.50897381e-20)
(4.39234795e-05 0.0582253024 0)
(4.36266868e-05 0.0575327291 0)
(4.3334169e-05 0.0568645917 0)
(4.30457894e-05 0.0562201925 0)
(4.2761518e-05 0.0555988641 0)
(4.24812598e-05 0.0549999678 0)
(4.22050552e-05 0.0544228923 0)
(4.19327539e-05 0.0538670522 -6.04865134e-20)
(4.16643521e-05 0.053331886 0)
(4.13997341e-05 0.0528168558 0)
(4.11389781e-05 0.0523214453 0)
(4.08819218e-05 0.0518451589 5.83803846e-20)
(4.06285475e-05 0.0513875208 0)
(4.0378589e-05 0.0509480738 0)
(4.01322413e-05 0.050526378 0)
(3.98910225e-05 0.0501220105 5.6394592e-20)
(3.96579414e-05 0.0497345632 0)
(3.94234599e-05 0.0493636412 0)
(3.91349993e-05 0.0490088586 0)
(3.87562092e-05 0.0486698302 5.45215246e-20)
(3.87188733e-05 0.0483461537 0)
(4.04489685e-05 0.0480373739 0)
(4.3133008e-05 0.0477429167 0)
(3.12879096e-05 0.0474618603 0)
)
;

boundaryField
{
    left
    {
        type            wedge;
    }
    right
    {
        type            wedge;
    }
    outerWall
    {
        type            navierSlip;
        value           uniform (0 0.0473554872 0);
        slipLength      uniform 1;
        wallVelocity    uniform (0 0 0);
    }
    innerWall
    {
        type            rotatingWallVelocity;
        origin          (0 0 0);
        axis            (0 0 1);
        omega           constant 12.566;
        value           uniform (0 0.628204307 -0);
    }
    frontAndBack
    {
        type            empty;
    }
}


// ************************************************************************* //
