/*--------------------------------*- C++ -*----------------------------------*\
| =========                 |                                                 |
| \\      /  F ield         | OpenFOAM: The Open Source CFD Toolbox           |
|  \\    /   O peration     | Version:  2206                                  |
|   \\  /    A nd           | Website:  www.openfoam.com                      |
|    \\/     M anipulation  |                                                 |
\*---------------------------------------------------------------------------*/
FoamFile
{
    version     2.0;
    format      ascii;
    arch        "LSB;label=32;scalar=64";
    class       volScalarField;
    location    "520";
    object      p;
}
// * * * * * * * * * * * * * * * * * * * * * * * * * * * * * * * * * * * * * //

dimensions      [0 2 -2 0 0 0 0];

internalField   nonuniform List<scalar> 
100000
(
-7.44955e-10
-1.26631e-08
-1.73572e-08
-1.47533e-08
-1.17829e-08
-3.96101e-09
2.10761e-10
1.31717e-08
2.40403e-08
4.25326e-08
5.93143e-08
7.58126e-08
9.75711e-08
1.20005e-07
1.47462e-07
1.75153e-07
2.0044e-07
2.33099e-07
2.64086e-07
3.02516e-07
3.38401e-07
3.74932e-07
4.15327e-07
4.58038e-07
5.03574e-07
5.52456e-07
6.02586e-07
6.49576e-07
7.04255e-07
7.57234e-07
8.17284e-07
8.75473e-07
9.3309e-07
9.96268e-07
1.05949e-06
1.12833e-06
1.19649e-06
1.2631e-06
1.33608e-06
1.40842e-06
1.48695e-06
1.5643e-06
1.64052e-06
1.72277e-06
1.80464e-06
1.89248e-06
1.97933e-06
2.06488e-06
2.1566e-06
2.24782e-06
2.34512e-06
2.4413e-06
2.53632e-06
2.63737e-06
2.73806e-06
2.84468e-06
2.95035e-06
3.05465e-06
3.16522e-06
3.27515e-06
3.39134e-06
3.50618e-06
3.62013e-06
3.73978e-06
3.85946e-06
3.9846e-06
4.10935e-06
4.23207e-06
4.36185e-06
4.49002e-06
4.62562e-06
4.75846e-06
4.8921e-06
5.02942e-06
5.16919e-06
5.31159e-06
5.45747e-06
5.60439e-06
5.74832e-06
5.89982e-06
6.04965e-06
6.20653e-06
6.36148e-06
6.51591e-06
6.67586e-06
6.83584e-06
7.00146e-06
7.16631e-06
7.32969e-06
7.49937e-06
7.66843e-06
7.84367e-06
8.01769e-06
8.19061e-06
8.36955e-06
8.54807e-06
8.73262e-06
8.91607e-06
9.09833e-06
9.28665e-06
9.47456e-06
9.66845e-06
9.86132e-06
1.00529e-05
1.02507e-05
1.04478e-05
1.06513e-05
1.08533e-05
1.10545e-05
1.12614e-05
1.14682e-05
1.16806e-05
1.18925e-05
1.21025e-05
1.23195e-05
1.25348e-05
1.27576e-05
1.29777e-05
1.31985e-05
1.3423e-05
1.365e-05
1.38796e-05
1.41127e-05
1.43467e-05
1.45779e-05
1.48165e-05
1.50536e-05
1.52976e-05
1.55397e-05
1.57814e-05
1.60285e-05
1.62756e-05
1.65284e-05
1.67804e-05
1.7031e-05
1.72879e-05
1.75441e-05
1.78065e-05
1.80677e-05
1.83278e-05
1.85939e-05
1.88596e-05
1.91312e-05
1.94019e-05
1.96713e-05
1.99468e-05
2.02218e-05
2.05029e-05
2.07829e-05
2.10617e-05
2.13465e-05
2.1631e-05
2.19214e-05
2.22108e-05
2.24989e-05
2.27932e-05
2.30869e-05
2.33868e-05
2.36854e-05
2.39831e-05
2.42865e-05
2.45899e-05
2.48988e-05
2.52072e-05
2.55137e-05
2.58272e-05
2.61391e-05
2.64584e-05
2.67749e-05
2.70923e-05
2.74133e-05
2.77368e-05
2.80629e-05
2.83925e-05
2.87231e-05
2.90507e-05
2.93859e-05
2.97195e-05
3.006e-05
3.03986e-05
3.07368e-05
3.10804e-05
3.14241e-05
3.17734e-05
3.21219e-05
3.2469e-05
3.28223e-05
3.31751e-05
3.3534e-05
3.38917e-05
3.42483e-05
3.46109e-05
3.49731e-05
3.53413e-05
3.57084e-05
3.60743e-05
3.64463e-05
3.68179e-05
3.71954e-05
3.75719e-05
3.79472e-05
3.83286e-05
3.87094e-05
3.90965e-05
3.94822e-05
3.9867e-05
4.02576e-05
4.06481e-05
4.10441e-05
4.14397e-05
4.18333e-05
4.22339e-05
4.26329e-05
4.30394e-05
4.3443e-05
4.38476e-05
4.42557e-05
4.46663e-05
4.50795e-05
4.54963e-05
4.5914e-05
4.63288e-05
4.67511e-05
4.71717e-05
4.75994e-05
4.80252e-05
4.84504e-05
4.88812e-05
4.9312e-05
4.97484e-05
5.0184e-05
5.06182e-05
5.10587e-05
5.14986e-05
5.19446e-05
5.23894e-05
5.28332e-05
5.32829e-05
5.37322e-05
5.41875e-05
5.46418e-05
5.50948e-05
5.5554e-05
5.60126e-05
5.64774e-05
5.69409e-05
5.74034e-05
5.78718e-05
5.83399e-05
5.88139e-05
5.92869e-05
5.97587e-05
6.02366e-05
6.07139e-05
6.11975e-05
6.16797e-05
6.2161e-05
6.2648e-05
6.3135e-05
6.36275e-05
6.41196e-05
6.46097e-05
6.51068e-05
6.56023e-05
6.61053e-05
6.66054e-05
6.71064e-05
6.7611e-05
6.81181e-05
6.86278e-05
6.91411e-05
6.96552e-05
7.01665e-05
7.06853e-05
7.12025e-05
7.17267e-05
7.22489e-05
7.27706e-05
7.32979e-05
7.38251e-05
7.43581e-05
7.48902e-05
7.54209e-05
7.59578e-05
7.64942e-05
7.70367e-05
7.7578e-05
7.81182e-05
7.86644e-05
7.92102e-05
7.97621e-05
8.03128e-05
8.08623e-05
8.14179e-05
8.19731e-05
8.25343e-05
8.30944e-05
8.36532e-05
8.42183e-05
8.47827e-05
8.53534e-05
8.59227e-05
8.64911e-05
8.70653e-05
8.76394e-05
8.82191e-05
8.87982e-05
8.93754e-05
8.99597e-05
9.05423e-05
9.11324e-05
9.17196e-05
9.23077e-05
9.28995e-05
9.34937e-05
9.40905e-05
9.46909e-05
9.52922e-05
9.58906e-05
9.64965e-05
9.71007e-05
9.7712e-05
9.83214e-05
9.89302e-05
9.95446e-05
0.000100159
0.000100779
0.000101398
0.000102016
0.00010264
0.000103264
0.000103893
0.000104522
0.000105149
0.000105782
0.000106415
0.000107054
0.000107692
0.000108329
0.000108971
0.000109614
0.000110262
0.000110909
0.000111555
0.000112207
0.000112859
0.000113517
0.000114173
0.000114829
0.00011549
0.000116151
0.000116818
0.000117484
0.000118149
0.000118819
0.00011949
0.000120166
0.000120842
0.000121516
0.000122196
0.000122875
0.000123562
0.000124246
0.00012493
0.000125618
0.000126309
0.000127002
0.000127699
0.000128397
0.000129092
0.000129794
0.000130495
0.000131203
0.000131909
0.000132614
0.000133325
0.000134036
0.000134752
0.000135468
0.000136182
0.000136903
0.000137623
0.000138349
0.000139074
0.000139798
0.000140527
0.000141257
0.000141992
0.000142727
0.00014346
0.000144199
0.000144938
0.000145682
0.000146426
0.000147169
0.000147917
0.000148665
0.00014942
0.000150172
0.000150924
0.000151682
0.00015244
0.000153203
0.000153966
0.000154727
0.000155495
0.000156261
0.000157034
0.000157805
0.000158577
0.000159352
0.00016013
0.000160911
0.000161695
0.000162479
0.000163261
0.000164051
0.000164839
0.000165634
0.000166427
0.000167219
0.000168017
0.000168815
0.000169619
0.000170421
0.000171223
0.000172031
0.000172838
0.000173651
0.000174463
0.000175274
0.000176091
0.000176907
0.00017773
0.000178551
0.000179371
0.000180198
0.000181024
0.000181856
0.000182686
0.000183516
0.000184352
0.000185187
0.000186028
0.000186868
0.000187707
0.000188552
0.000189397
0.000190248
0.000191097
0.000191945
0.0001928
0.000193654
0.000194514
0.000195373
0.00019623
0.000197094
0.000197957
0.000198827
0.000199695
0.000200563
0.000201435
0.000202309
0.000203186
0.000204066
0.000204948
0.000205826
0.000206712
0.000207596
0.000208488
0.000209377
0.000210266
0.000211161
0.000212055
0.000212955
0.000213854
0.000214752
0.000215656
0.00021656
0.00021747
0.000218378
0.000219286
0.000220199
0.000221112
0.000222031
0.000222949
0.000223866
0.000224788
0.000225711
0.000226639
0.000227566
0.000228492
0.000229425
0.000230356
0.000231294
0.000232231
0.000233166
0.000234108
0.000235049
0.000235996
0.000236942
0.000237887
0.000238838
0.000239788
0.000240745
0.000241699
0.000242655
0.000243614
0.000244575
0.000245539
0.000246507
0.000247475
0.000248441
0.000249414
0.000250385
0.000251364
0.00025234
0.000253316
0.000254298
0.000255279
0.000256267
0.000257253
0.000258238
0.000259229
0.00026022
0.000261217
0.000262212
0.000263207
0.000264207
0.000265207
0.000266214
0.000267219
0.000268222
0.000269232
0.000270242
0.000271257
0.000272272
0.000273285
0.000274304
0.000275323
0.000276348
0.000277372
0.000278394
0.000279423
0.000280451
0.000281485
0.000282518
0.00028355
0.000284588
0.000285626
0.000286669
0.000287712
0.000288753
0.000289801
0.000290847
0.000291901
0.000292952
0.000294004
0.000295059
0.000296117
0.000297177
0.000298241
0.000299306
0.000300368
0.000301438
0.000302506
0.000303581
0.000304654
0.000305726
0.000306804
0.000307882
0.000308966
0.000310049
0.00031113
0.000312218
0.000313305
0.000314399
0.000315491
0.000316582
0.000317679
0.000318775
0.000319878
0.000320979
0.00032208
0.000323186
0.000324292
0.000325404
0.000326515
0.000327624
0.00032874
0.000329855
0.000330977
0.000332097
0.000333216
0.000334341
0.000335466
0.000336596
0.000337726
0.000338854
0.000339989
0.000341123
0.000342264
0.000343402
0.000344541
0.000345683
0.000346828
0.000347976
0.000349127
0.000350279
0.000351428
0.000352585
0.00035374
0.000354902
0.000356062
0.000357222
0.000358387
0.000359552
0.000360723
0.000361893
0.000363061
0.000364236
0.00036541
0.000366591
0.00036777
0.000368948
0.000370132
0.000371316
0.000372505
0.000373694
0.000374882
0.000376075
0.000377268
0.000378467
0.000379665
0.000380862
0.000382065
0.000383267
0.000384476
0.000385683
0.000386889
0.000388101
0.000389313
0.000390531
0.000391748
0.000392963
0.000394185
0.000395406
0.000396633
0.000397859
0.000399084
0.000400315
0.000401545
0.000402782
0.000404017
0.000405252
0.000406491
0.000407733
0.000408977
0.000410224
0.000411473
0.000412719
0.000413972
0.000415223
0.000416482
0.000417738
0.000418995
0.000420256
0.000421518
0.000422785
0.000424052
0.000425317
0.000426588
0.000427859
0.000429136
0.000430411
0.000431686
0.000432966
0.000434246
0.000435533
0.000436818
0.000438102
0.000439392
0.000440681
0.000441977
0.000443271
0.000444564
0.000445864
0.000447163
0.000448468
0.000449771
0.000451074
0.000452383
0.000453691
0.000455005
0.000456319
0.00045763
0.000458949
0.000460266
0.00046159
0.000462912
0.000464234
0.00046556
0.000466889
0.00046822
0.000469555
0.00047089
0.000472223
0.000473563
0.000474902
0.000476248
0.000477591
0.000478935
0.000480283
0.000481632
0.000482987
0.00048434
0.000485692
0.000487051
0.000488409
0.000489773
0.000491135
0.000492497
0.000493865
0.000495232
0.000496605
0.000497977
0.000499348
0.000500726
0.000502102
0.000503485
0.000504866
0.000506247
0.000507633
0.000509019
0.000510411
0.000511802
0.000513192
0.000514588
0.000515983
0.000517385
0.000518785
0.000520184
0.000521589
0.000522994
0.000524404
0.000525814
0.000527222
0.000528637
0.000530051
0.000531472
0.00053289
0.000534309
0.000535731
0.000537157
0.000538584
0.000540015
0.000541447
0.000542877
0.000544313
0.000545749
0.000547191
0.000548631
0.000550071
0.000551516
0.000552961
0.000554412
0.000555862
0.000557311
0.000558765
0.00056022
0.00056168
0.000563139
0.000564598
0.000566062
0.000567526
0.000568995
0.000570464
0.000571931
0.000573405
0.000574878
0.000576357
0.000577835
0.000579312
0.000580795
0.000582277
0.000583766
0.000585253
0.00058674
0.000588232
0.000589724
0.000591221
0.000592719
0.000594214
0.000595716
0.000597216
0.000598724
0.00060023
0.000601736
0.000603245
0.000604758
0.000606272
0.000607791
0.00060931
0.000610826
0.00061235
0.000613872
0.000615402
0.000616929
0.000618456
0.000619988
0.00062152
0.000623058
0.000624595
0.000626131
0.000627673
0.000629215
0.000630762
0.000632309
0.000633854
0.000635405
0.000636956
0.000638513
0.000640069
0.000641623
0.000643184
0.000644744
0.00064631
0.000647875
0.000649439
0.000651009
0.000652579
0.000654155
0.000655729
0.000657302
0.000658882
0.000660461
0.000662046
0.00066363
0.000665212
0.000666801
0.00066839
0.000669984
0.000671577
0.000673169
0.000674767
0.000676364
0.000677969
0.000679571
0.000681173
0.000682779
0.000684388
0.000685999
0.000687614
0.00068923
0.000690843
0.000692463
0.000694082
0.000695707
0.000697331
0.000698954
0.000700583
0.000702212
0.000703846
0.00070548
0.000707112
0.000708751
0.000710389
0.000712033
0.000713675
0.000715317
0.000716965
0.000718612
0.000720266
0.000721918
0.000723569
0.000725226
0.000726883
0.000728545
0.000730207
0.000731868
0.000733534
0.0007352
0.000736872
0.000738543
0.000740213
0.000741889
0.000743564
0.000745246
0.000746926
0.000748605
0.000750291
0.000751975
0.000753667
0.000755355
0.000757045
0.000758738
0.000760434
0.000762132
0.000763834
0.000765537
0.000767237
0.000768944
0.00077065
0.000772363
0.000774074
0.000775784
0.0007775
0.000779216
0.000780938
0.000782658
0.000784378
0.000786103
0.000787828
0.000789559
0.000791289
0.000793018
0.000794753
0.000796488
0.000798228
0.000799967
0.000801706
0.00080345
0.000805194
0.000806943
0.000808692
0.00081044
0.000812193
0.000813946
0.000815706
0.000817464
0.000819221
0.000820984
0.000822746
0.000824515
0.000826282
0.000828049
0.000829821
0.000831593
0.00083337
0.000835148
0.000836923
0.000838705
0.000840486
0.000842274
0.000844059
0.000845845
0.000847635
0.000849427
0.000851222
0.00085302
0.00085482
0.000856616
0.00085842
0.000860222
0.000862031
0.000863839
0.000865646
0.000867458
0.00086927
0.000871088
0.000872906
0.000874722
0.000876544
0.000878365
0.000880193
0.000882019
0.000883844
0.000885676
0.000887507
0.000889344
0.000891179
0.000893014
0.000894855
0.000896695
0.000898541
0.000900387
0.000902231
0.000904081
0.00090593
0.000907786
0.000909641
0.000911494
0.000913353
0.000915213
0.000917077
0.000918942
0.000920804
0.000922673
0.000924541
0.000926416
0.000928289
0.000930162
0.000932039
0.000933918
0.0009358
0.000937685
0.000939572
0.000941455
0.000943346
0.000945236
0.000947132
0.000949027
0.000950921
0.00095282
0.000954719
0.000956625
0.000958529
0.000960432
0.000962341
0.00096425
0.000966164
0.000968078
0.00096999
0.000971909
0.000973827
0.000975751
0.000977674
0.000979596
0.000981523
0.000983451
0.000985384
0.000987316
0.000989248
0.000991185
0.000993122
0.000995064
0.000997006
0.000998946
0.00100089
0.00100284
0.00100479
0.00100674
0.00100869
0.00101065
0.0010126
0.00101457
0.00101653
0.00101848
0.00102045
0.00102241
0.00102439
0.00102636
0.00102832
0.0010303
0.00103227
0.00103425
0.00103623
0.00103822
0.0010402
0.00104218
0.00104417
0.00104616
0.00104815
0.00105014
0.00105214
0.00105414
0.00105614
0.00105814
0.00106014
0.00106214
0.00106415
0.00106616
0.00106817
0.00107018
0.00107219
0.00107421
0.00107623
0.00107825
0.00108027
0.00108229
0.00108432
0.00108634
0.00108837
0.0010904
0.00109244
0.00109447
0.00109651
0.00109855
0.00110058
0.00110263
0.00110467
0.00110672
0.00110876
0.00111081
0.00111286
0.00111491
0.00111697
0.00111903
0.00112109
0.00112315
0.00112521
0.00112728
0.00112934
0.00113141
0.00113348
0.00113556
0.00113763
0.00113971
0.00114179
0.00114386
0.00114595
0.00114803
0.00115012
0.00115221
0.00115429
0.00115639
0.00115848
0.00116058
0.00116267
0.00116477
0.00116687
0.00116897
0.00117108
0.00117319
0.00117529
0.0011774
0.00117952
0.00118163
0.00118375
0.00118586
0.00118798
0.0011901
0.00119223
0.00119436
0.00119648
0.00119861
0.00120074
0.00120288
0.00120501
0.00120714
0.00120928
0.00121142
0.00121357
0.00121571
0.00121785
0.00122
0.00122215
0.00122431
0.00122646
0.00122861
0.00123077
0.00123293
0.00123509
0.00123726
0.00123942
0.00124159
0.00124376
0.00124593
0.0012481
0.00125028
0.00125245
0.00125463
0.00125681
0.001259
0.00126118
0.00126336
0.00126555
0.00126774
0.00126994
0.00127213
0.00127432
0.00127652
0.00127872
0.00128092
0.00128313
0.00128533
0.00128754
0.00128974
0.00129196
0.00129417
0.00129638
0.0012986
0.00130081
0.00130304
0.00130526
0.00130748
0.00130971
0.00131193
0.00131416
0.0013164
0.00131862
0.00132086
0.0013231
0.00132534
0.00132758
0.00132982
0.00133206
0.00133431
0.00133656
0.00133881
0.00134106
0.00134331
0.00134557
0.00134783
0.00135009
0.00135235
0.00135462
0.00135688
0.00135915
0.00136142
0.00136369
0.00136596
0.00136824
0.00137052
0.0013728
0.00137508
0.00137736
0.00137964
0.00138193
0.00138422
0.00138651
0.0013888
0.00139109
0.00139339
0.00139569
0.00139799
0.00140029
0.00140259
0.00140489
0.0014072
0.00140951
0.00141182
0.00141413
0.00141645
0.00141877
0.00142109
0.0014234
0.00142573
0.00142805
0.00143038
0.0014327
0.00143503
0.00143736
0.0014397
0.00144203
0.00144437
0.00144671
0.00144905
0.00145139
0.00145374
0.00145608
0.00145843
0.00146078
0.00146314
0.00146549
0.00146785
0.00147021
0.00147257
0.00147493
0.00147729
0.00147966
0.00148203
0.0014844
0.00148677
0.00148914
0.00149152
0.0014939
0.00149627
0.00149865
0.00150104
0.00150342
0.00150581
0.0015082
0.00151059
0.00151298
0.00151537
0.00151777
0.00152017
0.00152257
0.00152497
0.00152737
0.00152978
0.00153218
0.00153459
0.001537
0.00153942
0.00154183
0.00154425
0.00154667
0.00154908
0.00155151
0.00155393
0.00155636
0.00155879
0.00156122
0.00156365
0.00156608
0.00156852
0.00157096
0.0015734
0.00157584
0.00157828
0.00158073
0.00158317
0.00158563
0.00158808
0.00159053
0.00159299
0.00159544
0.0015979
0.00160036
0.00160282
0.00160529
0.00160775
0.00161022
0.00161269
0.00161516
0.00161764
0.00162011
0.00162259
0.00162507
0.00162755
0.00163004
0.00163252
0.001635
0.00163749
0.00163999
0.00164248
0.00164497
0.00164747
0.00164996
0.00165247
0.00165497
0.00165747
0.00165998
0.00166248
0.00166499
0.00166751
0.00167002
0.00167253
0.00167505
0.00167757
0.00168009
0.00168261
0.00168513
0.00168766
0.00169019
0.00169272
0.00169526
0.00169779
0.00170032
0.00170286
0.0017054
0.00170795
0.00171049
0.00171303
0.00171558
0.00171813
0.00172068
0.00172323
0.00172579
0.00172835
0.00173091
0.00173347
0.00173603
0.0017386
0.00174116
0.00174373
0.0017463
0.00174887
0.00175145
0.00175402
0.0017566
0.00175918
0.00176176
0.00176434
0.00176693
0.00176952
0.00177211
0.00177469
0.00177729
0.00177988
0.00178248
0.00178508
0.00178768
0.00179028
0.00179288
0.00179549
0.0017981
0.00180071
0.00180332
0.00180593
0.00180855
0.00181117
0.00181379
0.0018164
0.00181903
0.00182165
0.00182428
0.00182691
0.00182954
0.00183218
0.00183481
0.00183745
0.00184009
0.00184272
0.00184537
0.00184801
0.00185066
0.00185331
0.00185595
0.00185861
0.00186126
0.00186392
0.00186658
0.00186923
0.00187189
0.00187456
0.00187722
0.00187989
0.00188256
0.00188523
0.0018879
0.00189057
0.00189325
0.00189593
0.00189861
0.00190129
0.00190397
0.00190666
0.00190934
0.00191203
0.00191472
0.00191742
0.00192011
0.00192281
0.00192551
0.00192821
0.00193091
0.00193361
0.00193632
0.00193903
0.00194174
0.00194445
0.00194717
0.00194988
0.0019526
0.00195532
0.00195804
0.00196077
0.00196349
0.00196622
0.00196895
0.00197168
0.00197441
0.00197715
0.00197988
0.00198262
0.00198536
0.00198811
0.00199085
0.00199359
0.00199634
0.00199909
0.00200185
0.0020046
0.00200735
0.00201011
0.00201287
0.00201563
0.0020184
0.00202116
0.00202393
0.0020267
0.00202947
0.00203224
0.00203501
0.00203779
0.00204057
0.00204335
0.00204613
0.00204891
0.0020517
0.00205449
0.00205728
0.00206007
0.00206286
0.00206565
0.00206845
0.00207125
0.00207406
0.00207686
0.00207966
0.00208247
0.00208528
0.00208809
0.0020909
0.00209372
0.00209653
0.00209935
0.00210217
0.002105
0.00210782
0.00211064
0.00211347
0.0021163
0.00211913
0.00212196
0.0021248
0.00212764
0.00213048
0.00213332
0.00213616
0.00213901
0.00214185
0.0021447
0.00214755
0.0021504
0.00215326
0.00215611
0.00215897
0.00216183
0.00216469
0.00216755
0.00217042
0.00217329
0.00217616
0.00217902
0.0021819
0.00218477
0.00218765
0.00219053
0.00219341
0.00219629
0.00219917
0.00220206
0.00220495
0.00220784
0.00221073
0.00221362
0.00221652
0.00221942
0.00222232
0.00222522
0.00222812
0.00223103
0.00223394
0.00223685
0.00223975
0.00224267
0.00224558
0.0022485
0.00225142
0.00225434
0.00225726
0.00226018
0.00226311
0.00226604
0.00226897
0.0022719
0.00227483
0.00227777
0.00228071
0.00228364
0.00228659
0.00228953
0.00229248
0.00229542
0.00229837
0.00230132
0.00230427
0.00230723
0.00231018
0.00231314
0.0023161
0.00231906
0.00232203
0.00232499
0.00232796
0.00233093
0.0023339
0.00233687
0.00233985
0.00234282
0.0023458
0.00234878
0.00235177
0.00235475
0.00235773
0.00236072
0.00236371
0.0023667
0.0023697
0.0023727
0.00237569
0.00237869
0.00238169
0.0023847
0.00238771
0.00239071
0.00239372
0.00239673
0.00239975
0.00240276
0.00240578
0.0024088
0.00241182
0.00241484
0.00241787
0.00242089
0.00242392
0.00242695
0.00242998
0.00243302
0.00243605
0.00243909
0.00244213
0.00244517
0.00244821
0.00245126
0.0024543
0.00245735
0.00246041
0.00246346
0.00246651
0.00246957
0.00247262
0.00247569
0.00247875
0.00248181
0.00248488
0.00248794
0.00249102
0.00249409
0.00249716
0.00250023
0.00250331
0.00250639
0.00250947
0.00251256
0.00251564
0.00251873
0.00252181
0.00252491
0.002528
0.00253109
0.00253419
0.00253729
0.00254039
0.00254349
0.00254659
0.0025497
0.00255281
0.00255592
0.00255903
0.00256214
0.00256526
0.00256838
0.0025715
0.00257462
0.00257774
0.00258086
0.00258399
0.00258712
0.00259025
0.00259338
0.00259651
0.00259965
0.00260279
0.00260593
0.00260907
0.00261221
0.00261536
0.00261851
0.00262166
0.0026248
0.00262796
0.00263111
0.00263427
0.00263743
0.00264059
0.00264375
0.00264691
0.00265008
0.00265325
0.00265642
0.00265959
0.00266276
0.00266594
0.00266912
0.0026723
0.00267548
0.00267866
0.00268185
0.00268504
0.00268823
0.00269141
0.00269461
0.0026978
0.002701
0.0027042
0.0027074
0.0027106
0.0027138
0.00271701
0.00272022
0.00272343
0.00272664
0.00272985
0.00273307
0.00273629
0.00273951
0.00274273
0.00274595
0.00274918
0.0027524
0.00275563
0.00275886
0.00276209
0.00276533
0.00276857
0.0027718
0.00277504
0.00277828
0.00278153
0.00278477
0.00278802
0.00279127
0.00279452
0.00279778
0.00280103
0.00280428
0.00280754
0.0028108
0.00281407
0.00281733
0.0028206
0.00282387
0.00282714
0.00283041
0.00283369
0.00283696
0.00284024
0.00284352
0.0028468
0.00285009
0.00285337
0.00285666
0.00285995
0.00286324
0.00286654
0.00286983
0.00287313
0.00287643
0.00287973
0.00288303
0.00288634
0.00288964
0.00289295
0.00289626
0.00289957
0.00290289
0.0029062
0.00290952
0.00291284
0.00291616
0.00291948
0.00292281
0.00292613
0.00292946
0.00293279
0.00293613
0.00293946
0.0029428
0.00294613
0.00294948
0.00295282
0.00295616
0.00295951
0.00296285
0.00296621
0.00296956
0.00297291
0.00297626
0.00297962
0.00298298
0.00298634
0.00298971
0.00299307
0.00299644
0.0029998
0.00300318
0.00300655
0.00300992
0.0030133
0.00301668
0.00302006
0.00302344
0.00302683
0.00303021
0.0030336
0.00303699
0.00304038
0.00304377
0.00304717
0.00305057
0.00305397
0.00305737
0.00306077
0.00306418
0.00306758
0.00307099
0.0030744
0.00307781
0.00308123
0.00308464
0.00308806
0.00309148
0.0030949
0.00309832
0.00310175
0.00310518
0.00310861
0.00311204
0.00311547
0.0031189
0.00312234
0.00312578
0.00312922
0.00313266
0.00313611
0.00313955
0.003143
0.00314646
0.0031499
0.00315336
0.00315681
0.00316028
0.00316374
0.00316719
0.00317066
0.00317412
0.00317759
0.00318106
0.00318453
0.00318801
0.00319148
0.00319496
0.00319844
0.00320192
0.0032054
0.00320888
0.00321237
0.00321586
0.00321935
0.00322284
0.00322633
0.00322983
0.00323333
0.00323682
0.00324033
0.00324383
0.00324734
0.00325084
0.00325435
0.00325786
0.00326137
0.00326489
0.00326841
0.00327192
0.00327544
0.00327896
0.00328249
0.00328601
0.00328954
0.00329307
0.0032966
0.00330014
0.00330367
0.0033072
0.00331074
0.00331428
0.00331783
0.00332137
0.00332492
0.00332847
0.00333202
0.00333557
0.00333913
0.00334269
0.00334624
0.0033498
0.00335336
0.00335693
0.0033605
0.00336406
0.00336763
0.0033712
0.00337478
0.00337835
0.00338193
0.00338551
0.00338909
0.00339267
0.00339626
0.00339984
0.00340343
0.00340702
0.00341061
0.00341421
0.0034178
0.0034214
0.003425
0.0034286
0.00343221
0.00343581
0.00343942
0.00344302
0.00344664
0.00345025
0.00345386
0.00345748
0.0034611
0.00346472
0.00346834
0.00347196
0.00347559
0.00347922
0.00348285
0.00348648
0.00349012
0.00349375
0.00349739
0.00350103
0.00350467
0.00350831
0.00351196
0.00351561
0.00351925
0.00352291
0.00352656
0.00353021
0.00353387
0.00353753
0.00354119
0.00354485
0.00354851
0.00355218
0.00355585
0.00355952
0.00356319
0.00356686
0.00357054
0.00357422
0.0035779
0.00358158
0.00358526
0.00358894
0.00359263
0.00359632
0.00360001
0.0036037
0.0036074
0.00361109
0.00361479
0.00361849
0.00362219
0.00362589
0.0036296
0.00363331
0.00363702
0.00364073
0.00364444
0.00364815
0.00365187
0.00365559
0.00365931
0.00366303
0.00366676
0.00367048
0.00367421
0.00367795
0.00368167
0.00368541
0.00368915
0.00369289
0.00369663
0.00370037
0.00370411
0.00370786
0.00371161
0.00371536
0.0037191
0.00372286
0.00372661
0.00373037
0.00373413
0.00373789
0.00374165
0.00374541
0.00374918
0.00375295
0.00375672
0.00376049
0.00376426
0.00376804
0.00377182
0.0037756
0.00377938
0.00378316
0.00378695
0.00379074
0.00379452
0.00379831
0.00380211
0.0038059
0.0038097
0.00381349
0.00381729
0.00382109
0.0038249
0.00382871
0.00383251
0.00383632
0.00384013
0.00384395
0.00384777
0.00385158
0.0038554
0.00385922
0.00386304
0.00386687
0.0038707
0.00387453
0.00387836
0.00388219
0.00388603
0.00388986
0.0038937
0.00389754
0.00390138
0.00390523
0.00390907
0.00391292
0.00391677
0.00392062
0.00392448
0.00392833
0.00393219
0.00393605
0.00393991
0.00394377
0.00394764
0.0039515
0.00395537
0.00395924
0.00396311
0.00396699
0.00397086
0.00397474
0.00397862
0.0039825
0.00398639
0.00399027
0.00399416
0.00399804
0.00400194
0.00400583
0.00400972
0.00401362
0.00401752
0.00402142
0.00402532
0.00402922
0.00403313
0.00403704
0.00404095
0.00404486
0.00404878
0.00405269
0.00405661
0.00406053
0.00406445
0.00406838
0.0040723
0.00407623
0.00408015
0.00408409
0.00408802
0.00409195
0.00409589
0.00409983
0.00410377
0.00410771
0.00411166
0.0041156
0.00411955
0.0041235
0.00412745
0.00413141
0.00413536
0.00413932
0.00414328
0.00414724
0.0041512
0.00415517
0.00415913
0.0041631
0.00416707
0.00417104
0.00417502
0.00417899
0.00418297
0.00418695
0.00419093
0.00419492
0.0041989
0.00420289
0.00420688
0.00421087
0.00421486
0.00421886
0.00422286
0.00422686
0.00423086
0.00423486
0.00423887
0.00424287
0.00424688
0.00425089
0.0042549
0.00425892
0.00426293
0.00426696
0.00427098
0.00427499
0.00427902
0.00428304
0.00428707
0.0042911
0.00429513
0.00429917
0.0043032
0.00430724
0.00431128
0.00431532
0.00431936
0.0043234
0.00432745
0.0043315
0.00433555
0.0043396
0.00434365
0.00434771
0.00435177
0.00435583
0.00435989
0.00436395
0.00436802
0.00437209
0.00437615
0.00438022
0.0043843
0.00438837
0.00439245
0.00439652
0.00440061
0.00440469
0.00440877
0.00441286
0.00441694
0.00442103
0.00442512
0.00442922
0.00443332
0.00443742
0.00444151
0.00444561
0.00444972
0.00445383
0.00445793
0.00446204
0.00446615
0.00447026
0.00447438
0.0044785
0.00448261
0.00448673
0.00449085
0.00449498
0.00449911
0.00450323
0.00450736
0.00451149
0.00451563
0.00451976
0.0045239
0.00452804
0.00453218
0.00453632
0.00454047
0.00454461
0.00454876
0.00455291
0.00455707
0.00456122
0.00456537
0.00456953
0.00457369
0.00457785
0.00458202
0.00458618
0.00459035
0.00459452
0.00459869
0.00460286
0.00460704
0.00461121
0.00461539
0.00461957
0.00462376
0.00462794
0.00463213
0.00463632
0.00464051
0.0046447
0.0046489
0.00465309
0.00465729
0.00466149
0.00466569
0.00466989
0.0046741
0.00467831
0.00468251
0.00468673
0.00469094
0.00469515
0.00469937
0.00470359
0.00470781
0.00471203
0.00471626
0.00472048
0.00472471
0.00472894
0.00473317
0.0047374
0.00474164
0.00474588
0.00475012
0.00475436
0.0047586
0.00476285
0.00476709
0.00477134
0.00477559
0.00477984
0.0047841
0.00478835
0.00479262
0.00479688
0.00480113
0.0048054
0.00480966
0.00481393
0.0048182
0.00482247
0.00482674
0.00483102
0.0048353
0.00483958
0.00484386
0.00484814
0.00485243
0.00485671
0.00486101
0.0048653
0.00486959
0.00487388
0.00487818
0.00488248
0.00488678
0.00489108
0.00489538
0.00489969
0.004904
0.00490831
0.00491261
0.00491693
0.00492124
0.00492556
0.00492988
0.0049342
0.00493852
0.00494285
0.00494718
0.0049515
0.00495583
0.00496016
0.0049645
0.00496884
0.00497317
0.00497751
0.00498185
0.00498619
0.00499054
0.00499489
0.00499924
0.00500359
0.00500794
0.0050123
0.00501665
0.00502101
0.00502537
0.00502973
0.0050341
0.00503846
0.00504283
0.0050472
0.00505157
0.00505595
0.00506033
0.0050647
0.00506908
0.00507346
0.00507785
0.00508223
0.00508662
0.00509101
0.0050954
0.00509979
0.00510419
0.00510859
0.00511298
0.00511738
0.00512178
0.00512619
0.0051306
0.005135
0.00513941
0.00514382
0.00514824
0.00515265
0.00515707
0.00516149
0.00516591
0.00517033
0.00517476
0.00517918
0.00518361
0.00518804
0.00519248
0.00519691
0.00520134
0.00520578
0.00521022
0.00521467
0.00521911
0.00522355
0.005228
0.00523245
0.0052369
0.00524135
0.00524581
0.00525026
0.00525472
0.00525918
0.00526365
0.00526811
0.00527258
0.00527705
0.00528152
0.00528599
0.00529047
0.00529494
0.00529942
0.0053039
0.00530838
0.00531287
0.00531735
0.00532184
0.00532633
0.00533082
0.00533531
0.00533981
0.0053443
0.0053488
0.0053533
0.00535781
0.00536231
0.00536682
0.00537132
0.00537584
0.00538035
0.00538486
0.00538937
0.00539389
0.00539841
0.00540293
0.00540745
0.00541198
0.00541651
0.00542104
0.00542557
0.0054301
0.00543463
0.00543917
0.00544371
0.00544825
0.00545279
0.00545733
0.00546188
0.00546643
0.00547098
0.00547553
0.00548008
0.00548464
0.0054892
0.00549376
0.00549832
0.00550288
0.00550745
0.00551201
0.00551658
0.00552116
0.00552572
0.0055303
0.00553488
0.00553946
0.00554404
0.00554862
0.0055532
0.00555779
0.00556238
0.00556697
0.00557155
0.00557615
0.00558074
0.00558534
0.00558994
0.00559454
0.00559914
0.00560375
0.00560836
0.00561296
0.00561757
0.00562219
0.0056268
0.00563142
0.00563603
0.00564065
0.00564527
0.0056499
0.00565452
0.00565915
0.00566378
0.00566841
0.00567304
0.00567768
0.00568231
0.00568695
0.00569159
0.00569623
0.00570088
0.00570553
0.00571018
0.00571482
0.00571948
0.00572413
0.00572879
0.00573345
0.0057381
0.00574277
0.00574743
0.0057521
0.00575676
0.00576143
0.0057661
0.00577077
0.00577545
0.00578013
0.0057848
0.00578949
0.00579417
0.00579885
0.00580354
0.00580822
0.00581292
0.00581761
0.0058223
0.005827
0.00583169
0.00583639
0.00584109
0.0058458
0.0058505
0.00585521
0.00585992
0.00586463
0.00586934
0.00587405
0.00587877
0.00588349
0.0058882
0.00589293
0.00589765
0.00590238
0.0059071
0.00591183
0.00591656
0.0059213
0.00592604
0.00593077
0.00593551
0.00594025
0.005945
0.00594974
0.00595449
0.00595924
0.00596399
0.00596874
0.0059735
0.00597825
0.00598301
0.00598777
0.00599253
0.0059973
0.00600206
0.00600683
0.0060116
0.00601637
0.00602114
0.00602592
0.00603069
0.00603547
0.00604025
0.00604504
0.00604982
0.00605461
0.00605939
0.00606419
0.00606898
0.00607377
0.00607857
0.00608336
0.00608816
0.00609297
0.00609777
0.00610257
0.00610738
0.00611219
0.006117
0.00612181
0.00612662
0.00613144
0.00613626
0.00614108
0.00614591
0.00615073
0.00615556
0.00616038
0.00616522
0.00617005
0.00617488
0.00617972
0.00618455
0.0061894
0.00619424
0.00619908
0.00620392
0.00620877
0.00621362
0.00621847
0.00622332
0.00622818
0.00623303
0.00623789
0.00624275
0.00624761
0.00625248
0.00625734
0.00626221
0.00626708
0.00627195
0.00627683