/*--------------------------------*- C++ -*----------------------------------*\
| =========                 |                                                 |
| \\      /  F ield         | OpenFOAM: The Open Source CFD Toolbox           |
|  \\    /   O peration     | Version:  2206                                  |
|   \\  /    A nd           | Website:  www.openfoam.com                      |
|    \\/     M anipulation  |                                                 |
\*---------------------------------------------------------------------------*/
FoamFile
{
    version     2.0;
    format      ascii;
    arch        "LSB;label=32;scalar=64";
    class       volScalarField;
    location    "150";
    object      p;
}
// * * * * * * * * * * * * * * * * * * * * * * * * * * * * * * * * * * * * * //

dimensions      [0 2 -2 0 0 0 0];

internalField   nonuniform List<scalar> 
100000
(
4.91648e-09
-7.02169e-09
-5.66285e-08
-2.17037e-08
-6.96168e-09
-1.75518e-08
-2.42843e-08
-4.19239e-08
-3.76911e-08
-3.1319e-08
-2.41816e-08
-1.88706e-08
-5.24552e-09
8.00021e-09
2.83094e-08
4.64018e-08
6.5641e-08
8.94342e-08
1.13594e-07
1.436e-07
1.72235e-07
2.01129e-07
2.34025e-07
2.68768e-07
3.06485e-07
3.46979e-07
3.89005e-07
4.28003e-07
4.74262e-07
5.18757e-07
5.69913e-07
6.19223e-07
6.68266e-07
7.22159e-07
7.76257e-07
8.3527e-07
8.93865e-07
9.50909e-07
1.01388e-06
1.07605e-06
1.14398e-06
1.2107e-06
1.27655e-06
1.34768e-06
1.41857e-06
1.49468e-06
1.57003e-06
1.64407e-06
1.72379e-06
1.80287e-06
1.88753e-06
1.97106e-06
2.05362e-06
2.14151e-06
2.22909e-06
2.32191e-06
2.41393e-06
2.50463e-06
2.60102e-06
2.69669e-06
2.79803e-06
2.89809e-06
2.99736e-06
3.10171e-06
3.20603e-06
3.31522e-06
3.42404e-06
3.531e-06
3.64431e-06
3.75605e-06
3.8745e-06
3.99039e-06
4.10702e-06
4.22687e-06
4.34892e-06
4.47319e-06
4.60065e-06
4.72892e-06
4.85457e-06
4.9869e-06
5.11774e-06
5.2548e-06
5.39019e-06
5.52497e-06
5.6648e-06
5.80446e-06
5.94927e-06
6.09326e-06
6.23597e-06
6.38425e-06
6.53195e-06
6.68512e-06
6.83723e-06
6.98823e-06
7.14468e-06
7.30063e-06
7.462e-06
7.62232e-06
7.78155e-06
7.94619e-06
8.11039e-06
8.27992e-06
8.44851e-06
8.61588e-06
8.78883e-06
8.96111e-06
9.139e-06
9.31563e-06
9.49141e-06
9.67231e-06
9.85311e-06
1.00388e-05
1.02241e-05
1.04076e-05
1.05973e-05
1.07855e-05
1.09804e-05
1.11727e-05
1.13658e-05
1.15621e-05
1.17605e-05
1.19612e-05
1.21651e-05
1.23697e-05
1.25717e-05
1.27804e-05
1.29876e-05
1.32011e-05
1.34128e-05
1.36239e-05
1.38401e-05
1.40561e-05
1.42772e-05
1.44976e-05
1.47166e-05
1.49412e-05
1.51652e-05
1.53947e-05
1.56231e-05
1.58504e-05
1.60831e-05
1.63154e-05
1.6553e-05
1.67897e-05
1.70252e-05
1.72661e-05
1.75065e-05
1.77524e-05
1.79972e-05
1.82409e-05
1.849e-05
1.87387e-05
1.89927e-05
1.92457e-05
1.94976e-05
1.9755e-05
2.00117e-05
2.02741e-05
2.05352e-05
2.07954e-05
2.10607e-05
2.1326e-05
2.15962e-05
2.18658e-05
2.21338e-05
2.24079e-05
2.26806e-05
2.29599e-05
2.32367e-05
2.35141e-05
2.37948e-05
2.40777e-05
2.43628e-05
2.46511e-05
2.49402e-05
2.52266e-05
2.55197e-05
2.58113e-05
2.61092e-05
2.64053e-05
2.67009e-05
2.70014e-05
2.73019e-05
2.76074e-05
2.79121e-05
2.82156e-05
2.85246e-05
2.8833e-05
2.91469e-05
2.94597e-05
2.97714e-05
3.00885e-05
3.04052e-05
3.07272e-05
3.10482e-05
3.13681e-05
3.16934e-05
3.20183e-05
3.23485e-05
3.26777e-05
3.30058e-05
3.33394e-05
3.36723e-05
3.40109e-05
3.43481e-05
3.46845e-05
3.50261e-05
3.53675e-05
3.57139e-05
3.60598e-05
3.64039e-05
3.67542e-05
3.71031e-05
3.74586e-05
3.78115e-05
3.81652e-05
3.85221e-05
3.88811e-05
3.92424e-05
3.96069e-05
3.99721e-05
4.03348e-05
4.07041e-05
4.10719e-05
4.14459e-05
4.18182e-05
4.219e-05
4.25667e-05
4.29433e-05
4.3325e-05
4.37059e-05
4.40855e-05
4.44707e-05
4.48553e-05
4.52454e-05
4.56343e-05
4.60223e-05
4.64156e-05
4.68084e-05
4.72066e-05
4.76038e-05
4.79999e-05
4.84014e-05
4.88024e-05
4.92088e-05
4.96142e-05
5.00185e-05
5.04281e-05
5.08374e-05
5.12519e-05
5.16655e-05
5.20779e-05
5.24959e-05
5.29132e-05
5.33361e-05
5.37577e-05
5.41785e-05
5.46044e-05
5.50302e-05
5.5461e-05
5.58912e-05
5.63197e-05
5.67544e-05
5.71876e-05
5.76275e-05
5.80648e-05
5.85028e-05
5.8944e-05
5.93875e-05
5.98331e-05
6.02819e-05
6.07315e-05
6.11785e-05
6.16322e-05
6.20844e-05
6.25428e-05
6.29994e-05
6.34555e-05
6.39166e-05
6.43776e-05
6.48437e-05
6.53089e-05
6.57729e-05
6.62425e-05
6.67114e-05
6.71858e-05
6.76591e-05
6.81314e-05
6.86091e-05
6.90863e-05
6.95689e-05
7.00504e-05
7.05308e-05
7.10167e-05
7.15021e-05
7.19928e-05
7.24826e-05
7.29712e-05
7.34653e-05
7.39588e-05
7.44578e-05
7.49556e-05
7.54526e-05
7.59546e-05
7.64566e-05
7.69635e-05
7.74699e-05
7.79745e-05
7.84854e-05
7.89948e-05
7.95108e-05
8.00243e-05
8.05385e-05
8.10559e-05
8.15755e-05
8.20973e-05
8.26223e-05
8.31481e-05
8.36712e-05
8.42011e-05
8.47294e-05
8.5264e-05
8.57968e-05
8.63291e-05
8.68663e-05
8.74034e-05
8.79457e-05
8.84871e-05
8.90272e-05
8.9573e-05
9.01181e-05
9.06687e-05
9.12181e-05
9.17666e-05
9.23204e-05
9.28738e-05
9.34325e-05
9.39902e-05
9.45468e-05
9.51088e-05
9.56704e-05
9.62373e-05
9.68032e-05
9.7368e-05
9.79382e-05
9.85079e-05
9.9083e-05
9.96572e-05
0.00010023
0.000100809
0.000101386
0.00010197
0.000102552
0.000103133
0.00010372
0.000104306
0.000104897
0.000105488
0.000106077
0.000106672
0.000107266
0.000107866
0.000108464
0.000109063
0.000109664
0.000110268
0.000110875
0.000111484
0.000112094
0.000112702
0.000113316
0.000113928
0.000114547
0.000115165
0.000115781
0.000116403
0.000117024
0.000117651
0.000118277
0.000118901
0.000119531
0.000120161
0.000120796
0.000121429
0.000122062
0.0001227
0.000123338
0.000123981
0.000124623
0.000125264
0.000125911
0.000126556
0.000127208
0.000127858
0.000128507
0.000129162
0.000129816
0.000130475
0.000131134
0.000131791
0.000132454
0.000133116
0.000133784
0.00013445
0.000135116
0.000135787
0.000136457
0.000137133
0.000137807
0.000138482
0.00013916
0.00013984
0.000140522
0.000141208
0.000141894
0.000142578
0.000143268
0.000143957
0.000144652
0.000145346
0.000146038
0.000146736
0.000147434
0.000148136
0.000148838
0.000149539
0.000150245
0.000150951
0.000151662
0.000152372
0.000153081
0.000153795
0.000154509
0.000155228
0.000155947
0.000156664
0.000157386
0.000158108
0.000158836
0.000159562
0.000160288
0.000161018
0.000161748
0.000162484
0.000163219
0.000163952
0.000164691
0.000165429
0.000166173
0.000166916
0.000167658
0.000168405
0.000169152
0.000169903
0.000170655
0.000171404
0.00017216
0.000172914
0.000173675
0.000174433
0.000175192
0.000175955
0.000176719
0.000177486
0.000178256
0.000179026
0.000179794
0.000180569
0.000181342
0.000182122
0.000182899
0.000183677
0.000184459
0.000185241
0.000186028
0.000186814
0.000187599
0.00018839
0.00018918
0.000189975
0.000190769
0.000191563
0.000192361
0.00019316
0.000193963
0.000194766
0.000195567
0.000196374
0.00019718
0.000197992
0.000198803
0.000199613
0.000200428
0.000201242
0.000202062
0.000202881
0.000203699
0.000204522
0.000205345
0.000206173
0.000207001
0.000207826
0.000208658
0.000209489
0.000210326
0.00021116
0.000211995
0.000212834
0.000213674
0.000214517
0.000215363
0.00021621
0.000217054
0.000217905
0.000218754
0.00021961
0.000220464
0.000221317
0.000222175
0.000223034
0.000223897
0.000224759
0.00022562
0.000226487
0.000227353
0.000228225
0.000229095
0.000229965
0.00023084
0.000231714
0.000232594
0.000233473
0.00023435
0.000235233
0.000236116
0.000237004
0.000237891
0.000238777
0.000239668
0.000240559
0.000241455
0.00024235
0.000243244
0.000244143
0.000245042
0.000245947
0.00024685
0.000247752
0.000248659
0.000249567
0.000250479
0.000251391
0.000252301
0.000253217
0.000254132
0.000255053
0.000255972
0.000256892
0.000257814
0.000258739
0.000259667
0.000260597
0.000261528
0.000262457
0.000263392
0.000264326
0.000265265
0.000266204
0.000267141
0.000268084
0.000269026
0.000269974
0.000270921
0.000271866
0.000272817
0.000273768
0.000274724
0.000275679
0.000276633
0.000277592
0.00027855
0.000279515
0.000280478
0.00028144
0.000282407
0.000283374
0.000284346
0.000285318
0.000286288
0.000287263
0.000288238
0.000289219
0.000290198
0.000291177
0.00029216
0.000293144
0.000294132
0.00029512
0.000296106
0.000297099
0.00029809
0.000299087
0.000300082
0.000301078
0.000302077
0.000303078
0.000304081
0.000305088
0.000306095
0.0003071
0.000308111
0.000309121
0.000310137
0.000311152
0.000312165
0.000313184
0.000314203
0.000315227
0.00031625
0.000317271
0.000318298
0.000319325
0.000320357
0.000321388
0.000322418
0.000323454
0.000324488
0.000325529
0.000326568
0.000327606
0.00032865
0.000329693
0.000330741
0.000331789
0.000332835
0.000333887
0.000334938
0.000335995
0.00033705
0.000338105
0.000339165
0.000340224
0.000341289
0.000342353
0.000343415
0.000344483
0.000345551
0.000346624
0.000347696
0.000348767
0.000349844
0.000350919
0.000352001
0.00035308
0.00035416
0.000355244
0.000356329
0.000357417
0.000358508
0.000359599
0.000360688
0.000361784
0.000362878
0.000363979
0.000365077
0.000366175
0.000367279
0.000368382
0.00036949
0.000370597
0.000371703
0.000372815
0.000373926
0.000375042
0.000376157
0.000377272
0.000378392
0.000379511
0.000380635
0.000381759
0.000382881
0.000384009
0.000385137
0.00038627
0.000387401
0.000388532
0.000389668
0.000390804
0.000391945
0.000393085
0.000394224
0.000395368
0.000396512
0.000397661
0.000398809
0.000399956
0.000401109
0.00040226
0.000403418
0.000404574
0.00040573
0.000406889
0.000408051
0.000409215
0.000410382
0.00041155
0.000412715
0.000413887
0.000415057
0.000416234
0.000417409
0.000418583
0.000419762
0.000420941
0.000422126
0.000423309
0.000424491
0.000425679
0.000426866
0.000428059
0.00042925
0.000430441
0.000431637
0.000432832
0.000434033
0.000435233
0.000436431
0.000437635
0.000438839
0.000440048
0.000441256
0.000442463
0.000443675
0.000444887
0.000446104
0.00044732
0.000448535
0.000449755
0.000450975
0.000452201
0.000453425
0.000454648
0.000455877
0.000457105
0.000458338
0.000459571
0.000460802
0.000462039
0.000463275
0.000464518
0.000465758
0.000466998
0.000468242
0.000469488
0.000470736
0.000471987
0.00047324
0.000474489
0.000475745
0.000477
0.000478261
0.00047952
0.000480779
0.000482043
0.000483306
0.000484575
0.000485843
0.000487109
0.000488381
0.000489653
0.00049093
0.000492206
0.00049348
0.000494761
0.00049604
0.000497325
0.00049861
0.000499893
0.000501181
0.000502469
0.000503762
0.000505054
0.000506346
0.000507642
0.000508938
0.00051024
0.00051154
0.00051284
0.000514144
0.000515449
0.000516758
0.000518067
0.000519374
0.000520688
0.000522
0.000523318
0.000524634
0.000525951
0.000527271
0.000528593
0.000529918
0.000531245
0.000532573
0.000533899
0.000535232
0.000536562
0.0005379
0.000539235
0.00054057
0.00054191
0.000543249
0.000544594
0.000545938
0.000547281
0.000548629
0.000549977
0.00055133
0.000552682
0.000554033
0.000555389
0.000556745
0.000558106
0.000559467
0.000560826
0.00056219
0.000563554
0.000564924
0.000566292
0.00056766
0.000569032
0.000570405
0.000571782
0.000573159
0.000574534
0.000575915
0.000577296
0.000578682
0.000580067
0.00058145
0.000582839
0.000584228
0.000585622
0.000587015
0.000588407
0.000589805
0.000591201
0.000592604
0.000594004
0.000595405
0.00059681
0.000598216
0.000599625
0.000601037
0.000602449
0.000603859
0.000605276
0.000606691
0.000608113
0.000609533
0.000610952
0.000612376
0.0006138
0.000615229
0.000616657
0.000618084
0.000619517
0.000620949
0.000622386
0.000623823
0.000625258
0.000626699
0.000628139
0.000629585
0.000631029
0.000632473
0.000633922
0.00063537
0.000636824
0.000638277
0.000639729
0.000641186
0.000642642
0.000644104
0.000645565
0.000647025
0.00064849
0.000649955
0.000651425
0.000652895
0.000654362
0.000655836
0.000657309
0.000658788
0.000660264
0.000661742
0.000663222
0.000664705
0.00066619
0.000667678
0.000669167
0.000670653
0.000672146
0.000673637
0.000675135
0.000676631
0.000678126
0.000679626
0.000681126
0.000682632
0.000684136
0.000685639
0.000687148
0.000688656
0.00069017
0.000691682
0.000693194
0.000694711
0.000696227
0.000697749
0.00069927
0.000700789
0.000702315
0.000703839
0.000705369
0.000706898
0.000708426
0.000709959
0.000711492
0.00071303
0.000714567
0.000716103
0.000717645
0.000719186
0.000720732
0.000722277
0.000723822
0.000725371
0.000726921
0.000728475
0.000730029
0.000731581
0.000733139
0.000734696
0.000736259
0.00073782
0.000739382
0.000740947
0.000742514
0.000744083
0.000745655
0.000747228
0.000748799
0.000750376
0.000751952
0.000753534
0.000755114
0.000756694
0.000758278
0.000759863
0.000761453
0.000763041
0.000764629
0.000766222
0.000767815
0.000769413
0.000771009
0.000772605
0.000774207
0.000775807
0.000777413
0.000779019
0.000780623
0.000782232
0.000783841
0.000785455
0.000787069
0.000788681
0.000790298
0.000791915
0.000793538
0.000795159
0.00079678
0.000798406
0.000800031
0.000801662
0.000803292
0.00080492
0.000806554
0.000808187
0.000809827
0.000811464
0.000813102
0.000814743
0.000816386
0.000818031
0.00081968
0.000821329
0.000822976
0.000824629
0.000826281
0.000827939
0.000829595
0.000831251
0.000832912
0.000834573
0.000836239
0.000837904
0.000839567
0.000841237
0.000842905
0.000844579
0.000846252
0.000847924
0.000849602
0.000851279
0.000852961
0.000854642
0.000856322
0.000858008
0.000859693
0.000861384
0.000863073
0.000864762
0.000866455
0.000868149
0.000869847
0.000871545
0.000873241
0.000874943
0.000876645
0.000878352
0.000880058
0.000881762
0.000883472
0.000885182
0.000886897
0.000888611
0.000890324
0.000892043
0.00089376
0.000895484
0.000897205
0.000898927
0.000900653
0.00090238
0.00090411
0.000905843
0.000907577
0.000909308
0.000911045
0.000912782
0.000914524
0.000916265
0.000918005
0.00091975
0.000921495
0.000923245
0.000924995
0.000926743
0.000928496
0.000930249
0.000932008
0.000933765
0.000935522
0.000937283
0.000939045
0.000940811
0.000942577
0.000944341
0.000946111
0.000947881
0.000949656
0.00095143
0.000953202
0.00095498
0.000956758
0.000958541
0.000960323
0.000962104
0.00096389
0.000965676
0.000967467
0.000969258
0.000971046
0.000972841
0.000974635
0.000976435
0.000978232
0.000980031
0.000981832
0.000983636
0.000985442
0.000987251
0.000989061
0.000990868
0.000992682
0.000994494
0.000996313
0.00099813
0.000999946
0.00100177
0.00100359
0.00100541
0.00100724
0.00100906
0.00101089
0.00101272
0.00101456
0.00101639
0.00101822
0.00102006
0.0010219
0.00102374
0.00102558
0.00102742
0.00102927
0.00103112
0.00103297
0.00103482
0.00103667
0.00103852
0.00104037
0.00104223
0.00104409
0.00104595
0.00104781
0.00104967
0.00105154
0.00105341
0.00105527
0.00105714
0.00105901
0.00106089
0.00106276
0.00106464
0.00106652
0.00106839
0.00107028
0.00107216
0.00107404
0.00107593
0.00107782
0.00107971
0.0010816
0.00108349
0.00108539
0.00108728
0.00108918
0.00109108
0.00109298
0.00109489
0.00109679
0.0010987
0.00110061
0.00110252
0.00110443
0.00110634
0.00110825
0.00111017
0.00111209
0.00111401
0.00111593
0.00111785
0.00111978
0.0011217
0.00112363
0.00112556
0.00112749
0.00112943
0.00113136
0.00113329
0.00113523
0.00113717
0.00113911
0.00114106
0.001143
0.00114494
0.00114689
0.00114884
0.00115079
0.00115274
0.0011547
0.00115665
0.00115861
0.00116057
0.00116253
0.00116449
0.00116646
0.00116842
0.00117039
0.00117236
0.00117433
0.0011763
0.00117828
0.00118026
0.00118223
0.00118421
0.00118619
0.00118817
0.00119016
0.00119215
0.00119413
0.00119612
0.00119811
0.00120011
0.0012021
0.00120409
0.00120609
0.00120809
0.00121009
0.0012121
0.0012141
0.0012161
0.00121811
0.00122012
0.00122213
0.00122414
0.00122616
0.00122817
0.00123019
0.00123221
0.00123423
0.00123625
0.00123827
0.0012403
0.00124233
0.00124435
0.00124638
0.00124841
0.00125045
0.00125248
0.00125452
0.00125656
0.0012586
0.00126064
0.00126268
0.00126473
0.00126677
0.00126882
0.00127087
0.00127293
0.00127498
0.00127703
0.00127909
0.00128115
0.00128321
0.00128527
0.00128734
0.0012894
0.00129147
0.00129354
0.00129561
0.00129768
0.00129975
0.00130183
0.00130391
0.00130598
0.00130806
0.00131015
0.00131223
0.00131432
0.0013164
0.00131849
0.00132058
0.00132267
0.00132476
0.00132686
0.00132895
0.00133105
0.00133315
0.00133525
0.00133736
0.00133946
0.00134157
0.00134367
0.00134579
0.0013479
0.00135001
0.00135212
0.00135424
0.00135636
0.00135848
0.0013606
0.00136272
0.00136484
0.00136697
0.0013691
0.00137123
0.00137336
0.00137549
0.00137763
0.00137977
0.00138191
0.00138404
0.00138619
0.00138833
0.00139048
0.00139262
0.00139477
0.00139692
0.00139907
0.00140122
0.00140338
0.00140553
0.00140769
0.00140985
0.00141201
0.00141418
0.00141634
0.0014185
0.00142067
0.00142284
0.00142501
0.00142718
0.00142936
0.00143153
0.00143371
0.00143589
0.00143807
0.00144025
0.00144244
0.00144463
0.00144681
0.001449
0.00145119
0.00145338
0.00145558
0.00145778
0.00145997
0.00146217
0.00146437
0.00146657
0.00146878
0.00147098
0.00147319
0.0014754
0.00147761
0.00147982
0.00148204
0.00148425
0.00148647
0.00148869
0.00149091
0.00149313
0.00149535
0.00149758
0.00149981
0.00150204
0.00150427
0.0015065
0.00150874
0.00151097
0.00151321
0.00151545
0.00151769
0.00151993
0.00152217
0.00152442
0.00152667
0.00152891
0.00153117
0.00153342
0.00153567
0.00153793
0.00154018
0.00154244
0.0015447
0.00154697
0.00154923
0.00155149
0.00155376
0.00155603
0.0015583
0.00156057
0.00156284
0.00156512
0.00156739
0.00156967
0.00157195
0.00157423
0.00157652
0.0015788
0.00158109
0.00158338
0.00158567
0.00158796
0.00159026
0.00159255
0.00159485
0.00159715
0.00159945
0.00160175
0.00160405
0.00160636
0.00160867
0.00161097
0.00161328
0.00161559
0.00161791
0.00162023
0.00162254
0.00162486
0.00162718
0.0016295
0.00163183
0.00163415
0.00163648
0.0016388
0.00164113
0.00164347
0.0016458
0.00164813
0.00165047
0.00165281
0.00165515
0.00165749
0.00165983
0.00166217
0.00166452
0.00166687
0.00166922
0.00167157
0.00167392
0.00167628
0.00167863
0.00168099
0.00168335
0.00168571
0.00168808
0.00169044
0.0016928
0.00169517
0.00169754
0.00169991
0.00170229
0.00170466
0.00170704
0.00170942
0.00171179
0.00171418
0.00171656
0.00171894
0.00172133
0.00172372
0.00172611
0.0017285
0.00173089
0.00173329
0.00173568
0.00173808
0.00174048
0.00174288
0.00174528
0.00174769
0.0017501
0.0017525
0.00175491
0.00175732
0.00175973
0.00176215
0.00176457
0.00176698
0.0017694
0.00177182
0.00177425
0.00177667
0.00177909
0.00178152
0.00178395
0.00178638
0.00178881
0.00179125
0.00179368
0.00179612
0.00179856
0.001801
0.00180344
0.00180588
0.00180833
0.00181078
0.00181323
0.00181568
0.00181813
0.00182059
0.00182304
0.0018255
0.00182796
0.00183042
0.00183288
0.00183534
0.00183781
0.00184028
0.00184275
0.00184522
0.00184769
0.00185017
0.00185264
0.00185512
0.0018576
0.00186008
0.00186256
0.00186504
0.00186753
0.00187002
0.0018725
0.001875
0.00187749
0.00187998
0.00188247
0.00188497
0.00188747
0.00188997
0.00189247
0.00189498
0.00189748
0.00189999
0.0019025
0.001905
0.00190752
0.00191003
0.00191255
0.00191506
0.00191758
0.0019201
0.00192262
0.00192515
0.00192767
0.0019302
0.00193272
0.00193525
0.00193779
0.00194032
0.00194286
0.00194539
0.00194793
0.00195047
0.00195301
0.00195556
0.0019581
0.00196065
0.0019632
0.00196575
0.0019683
0.00197085
0.00197341
0.00197596
0.00197852
0.00198108
0.00198364
0.00198621
0.00198877
0.00199134
0.00199391
0.00199648
0.00199905
0.00200162
0.0020042
0.00200677
0.00200935
0.00201193
0.00201451
0.0020171
0.00201968
0.00202226
0.00202485
0.00202744
0.00203003
0.00203263
0.00203522
0.00203782
0.00204041
0.00204301
0.00204562
0.00204821
0.00205082
0.00205342
0.00205604
0.00205864
0.00206125
0.00206386
0.00206648
0.0020691
0.00207172
0.00207434
0.00207695
0.00207958
0.0020822
0.00208483
0.00208746
0.00209009
0.00209272
0.00209535
0.00209799
0.00210062
0.00210326
0.0021059
0.00210854
0.00211118
0.00211383
0.00211647
0.00211912
0.00212177
0.00212442
0.00212707
0.00212973
0.00213238
0.00213504
0.0021377
0.00214036
0.00214302
0.00214569
0.00214835
0.00215102
0.00215369
0.00215636
0.00215903
0.0021617
0.00216438
0.00216706
0.00216973
0.00217242
0.0021751
0.00217778
0.00218047
0.00218315
0.00218584
0.00218853
0.00219122
0.00219392
0.00219662
0.00219931
0.00220201
0.00220471
0.00220742
0.00221012
0.00221282
0.00221553
0.00221824
0.00222095
0.00222367
0.00222638
0.00222909
0.00223181
0.00223453
0.00223725
0.00223997
0.0022427
0.00224542
0.00224815
0.00225088
0.00225361
0.00225634
0.00225907
0.00226181
0.00226455
0.00226728
0.00227002
0.00227276
0.00227551
0.00227825
0.002281
0.00228375
0.0022865
0.00228925
0.002292
0.00229476
0.00229751
0.00230027
0.00230303
0.0023058
0.00230856
0.00231132
0.00231409
0.00231686
0.00231963
0.0023224
0.00232517
0.00232794
0.00233072
0.0023335
0.00233628
0.00233906
0.00234185
0.00234463
0.00234742
0.00235021
0.00235299
0.00235579
0.00235858
0.00236138
0.00236417
0.00236697
0.00236977
0.00237257
0.00237538
0.00237818
0.00238099
0.00238379
0.0023866
0.00238942
0.00239223
0.00239504
0.00239786
0.00240068
0.0024035
0.00240632
0.00240914
0.00241197
0.00241479
0.00241762
0.00242045
0.00242328
0.00242611
0.00242895
0.00243178
0.00243462
0.00243746
0.0024403
0.00244314
0.00244599
0.00244883
0.00245168
0.00245453
0.00245738
0.00246023
0.00246309
0.00246595
0.0024688
0.00247166
0.00247452
0.00247739
0.00248025
0.00248312
0.00248598
0.00248885
0.00249173
0.0024946
0.00249747
0.00250035
0.00250323
0.00250611
0.00250899
0.00251187
0.00251475
0.00251764
0.00252053
0.00252342
0.00252631
0.0025292
0.00253209
0.00253499
0.00253789
0.00254078
0.00254369
0.00254659
0.00254949
0.0025524
0.0025553
0.00255821
0.00256112
0.00256404
0.00256695
0.00256986
0.00257278
0.0025757
0.00257862
0.00258154
0.00258447
0.00258739
0.00259032
0.00259325
0.00259618
0.00259911
0.00260204
0.00260498
0.00260791
0.00261086
0.0026138
0.00261674
0.00261968
0.00262263
0.00262558
0.00262852
0.00263147
0.00263443
0.00263738
0.00264034
0.00264329
0.00264625
0.00264921
0.00265217
0.00265514
0.0026581
0.00266107
0.00266404
0.00266701
0.00266998
0.00267296
0.00267593
0.00267891
0.00268188
0.00268487
0.00268785
0.00269083
0.00269381
0.0026968
0.00269979
0.00270278
0.00270577
0.00270876
0.00271176
0.00271476
0.00271775
0.00272075
0.00272375
0.00272676
0.00272976
0.00273277
0.00273578
0.00273878
0.0027418
0.00274481
0.00274783
0.00275084
0.00275386
0.00275688
0.0027599
0.00276293
0.00276595
0.00276898
0.00277201
0.00277504
0.00277807
0.0027811
0.00278414
0.00278717
0.00279021
0.00279325
0.00279629
0.00279933
0.00280238
0.00280543
0.00280848
0.00281153
0.00281457
0.00281763
0.00282068
0.00282374
0.0028268
0.00282986
0.00283292
0.00283598
0.00283905
0.00284211
0.00284518
0.00284825
0.00285132
0.00285439
0.00285747
0.00286054
0.00286362
0.0028667
0.00286978
0.00287286
0.00287594
0.00287903
0.00288212
0.00288521
0.0028883
0.00289139
0.00289448
0.00289758
0.00290068
0.00290378
0.00290688
0.00290998
0.00291309
0.00291619
0.0029193
0.00292241
0.00292552
0.00292863
0.00293175
0.00293487
0.00293798
0.0029411
0.00294422
0.00294734
0.00295047
0.0029536
0.00295672
0.00295985
0.00296298
0.00296612
0.00296925
0.00297238
0.00297552
0.00297866
0.0029818
0.00298494
0.00298809
0.00299123
0.00299438
0.00299753
0.00300068
0.00300383
0.00300698
0.00301014
0.0030133
0.00301646
0.00301961
0.00302278
0.00302594
0.00302911
0.00303227
0.00303544
0.00303861
0.00304178
0.00304496
0.00304813
0.00305131
0.00305449
0.00305767
0.00306085
0.00306404
0.00306722
0.00307041
0.0030736
0.00307679
0.00307998
0.00308318
0.00308637
0.00308957
0.00309276
0.00309597
0.00309917
0.00310237
0.00310558
0.00310878
0.00311199
0.0031152
0.00311841
0.00312163
0.00312484
0.00312806
0.00313128
0.0031345
0.00313772
0.00314094
0.00314417
0.0031474
0.00315062
0.00315385
0.00315708
0.00316032
0.00316355
0.00316679
0.00317003
0.00317326
0.00317651
0.00317975
0.00318299
0.00318624
0.00318949
0.00319274
0.00319599
0.00319924
0.0032025
0.00320575
0.00320901
0.00321227
0.00321553
0.00321879
0.00322206
0.00322533
0.0032286
0.00323187
0.00323514
0.00323841
0.00324168
0.00324496
0.00324824
0.00325152
0.0032548
0.00325808
0.00326137
0.00326466
0.00326794
0.00327123
0.00327452
0.00327782
0.00328111
0.00328441
0.00328771
0.003291
0.00329431
0.00329761
0.00330091
0.00330422
0.00330753
0.00331084
0.00331415
0.00331746
0.00332077
0.00332409
0.00332741
0.00333073
0.00333405
0.00333737
0.00334069
0.00334402
0.00334735
0.00335067
0.003354
0.00335734
0.00336067
0.00336401
0.00336735
0.00337069
0.00337403
0.00337737
0.00338072
0.00338406
0.00338741
0.00339076
0.00339411
0.00339746
0.00340082
0.00340417
0.00340753
0.00341089
0.00341425
0.00341761
0.00342098
0.00342434
0.00342771
0.00343108
0.00343445
0.00343782
0.0034412
0.00344457
0.00344795
0.00345133
0.00345471
0.00345809
0.00346147
0.00346486
0.00346825
0.00347163
0.00347503
0.00347842
0.00348181
0.00348521
0.0034886
0.003492
0.0034954
0.0034988
0.00350221
0.00350561
0.00350902
0.00351243
0.00351584
0.00351925
0.00352266
0.00352608
0.00352949
0.00353291
0.00353633
0.00353976
0.00354318
0.00354661
0.00355003
0.00355346
0.00355689
0.00356032
0.00356376
0.00356719
0.00357063
0.00357407
0.00357751
0.00358095
0.00358439
0.00358784
0.00359129
0.00359473
0.00359818
0.00360164
0.00360509
0.00360855
0.003612
0.00361546
0.00361892
0.00362238
0.00362585
0.00362931
0.00363278
0.00363624
0.00363972
0.00364319
0.00364666
0.00365013
0.00365361
0.00365709
0.00366057
0.00366405
0.00366753
0.00367101
0.0036745
0.00367799
0.00368148
0.00368497
0.00368846
0.00369196
0.00369546
0.00369896
0.00370245
0.00370596
0.00370946
0.00371296
0.00371647
0.00371998
0.00372349
0.003727
0.00373051
0.00373403
0.00373754
0.00374106
0.00374458
0.0037481
0.00375163
0.00375515
0.00375868
0.0037622
0.00376574
0.00376927
0.0037728
0.00377633
0.00377987
0.00378341
0.00378695
0.00379049
0.00379403
0.00379757
0.00380112
0.00380467
0.00380822
0.00381177
0.00381532
0.00381888
0.00382243
0.00382599
0.00382955
0.00383311
0.00383667
0.00384023
0.0038438
0.00384737
0.00385093
0.00385451
0.00385808
0.00386165
0.00386523
0.0038688
0.00387238
0.00387597
0.00387955
0.00388313
0.00388672
0.0038903
0.0038939
0.00389749
0.00390108
0.00390467
0.00390827
0.00391187
0.00391547
0.00391906
0.00392267
0.00392627
0.00392988
0.00393349
0.00393709
0.00394071
0.00394432
0.00394793
0.00395155
0.00395516
0.00395878
0.0039624
0.00396603
0.00396965
0.00397327
0.0039769
0.00398053
0.00398416
0.00398779
0.00399142
0.00399506
0.0039987
0.00400234
0.00400598
0.00400962
0.00401326
0.00401691
0.00402056
0.0040242
0.00402785
0.0040315
0.00403516
0.00403881
0.00404247
0.00404613
0.00404979
0.00405345
0.00405711
0.00406078
0.00406445
0.00406812
0.00407179
0.00407546
0.00407913
0.00408281
0.00408648
0.00409016
0.00409384
0.00409753
0.00410121
0.00410489
0.00410858
0.00411227
0.00411596
0.00411965
0.00412334
0.00412704
0.00413073
0.00413444
0.00413814
0.00414183
0.00414554
0.00414924
0.00415295
0.00415666
0.00416037
0.00416408
0.00416779
0.00417151
0.00417522
0.00417894
0.00418266
0.00418638
0.00419011
0.00419383
0.00419755
0.00420128
0.00420501
0.00420874
0.00421248
0.00421621
0.00421995
0.00422368
0.00422742
0.00423117
0.00423491
0.00423865
0.0042424
0.00424615
0.0042499
0.00425365
0.0042574
0.00426116
0.00426491
0.00426867
0.00427243
0.00427619
0.00427996
0.00428372
0.00428749
0.00429126
0.00429502
0.0042988
0.00430257
0.00430634
0.00431012
0.00431389
0.00431768
0.00432146
0.00432524
0.00432902
0.00433281
0.0043366
0.00434038
0.00434418
0.00434797
0.00435176
0.00435556
0.00435935
0.00436316
0.00436696
0.00437076
0.00437456
0.00437837
0.00438218
0.00438598
0.00438979
0.0043936
0.00439742
0.00440124
0.00440505
0.00440888
0.00441269
0.00441652
0.00442034
0.00442417
0.004428
0.00443182
0.00443565
0.00443949
0.00444332
0.00444716
0.00445099
0.00445483
0.00445867
0.00446252
0.00446636
0.00447021
0.00447405
0.0044779
0.00448176
0.00448561
0.00448946
0.00449332
0.00449717
0.00450103
0.00450489
0.00450875
0.00451262
0.00451648
0.00452035
0.00452422
0.00452809
0.00453196
0.00453583
0.00453971
0.00454359
0.00454746
0.00455134
0.00455522
0.00455911
0.004563
0.00456688
0.00457077
0.00457466
0.00457855
0.00458244
0.00458634
0.00459023
0.00459413
0.00459803
0.00460194
0.00460584
0.00460974
0.00461365
0.00461756
0.00462147
0.00462538
0.0046293
0.00463321
0.00463713
0.00464105
0.00464497
0.00464889
0.00465281
0.00465674
0.00466067
0.00466459
0.00466852
0.00467245
0.00467639
0.00468032
0.00468426
0.0046882
0.00469214
0.00469608
0.00470002
0.00470397
0.00470791
0.00471186
0.00471581
0.00471976
0.00472372
0.00472767
0.00473163
0.00473558
0.00473954
0.00474351
0.00474747
0.00475143
0.0047554
0.00475937
0.00476333
0.0047673
0.00477128
0.00477525
0.00477923
0.00478321
0.00478719
0.00479117
0.00479515
0.00479914
0.00480312
0.00480711
0.0048111
0.00481509
0.00481908
0.00482308
0.00482708
0.00483107
0.00483507
0.00483907
0.00484308
0.00484708
0.00485109
0.0048551
0.0048591
0.00486312
0.00486713
0.00487114
0.00487516
0.00487918
0.0048832
0.00488722
0.00489124
0.00489526
0.00489929
0.00490332
0.00490735
0.00491138
0.00491541
0.00491944
0.00492348
0.00492752
0.00493155
0.0049356
0.00493964
0.00494368
0.00494773
0.00495177
0.00495582
0.00495987
0.00496393
0.00496798
0.00497203
0.00497609
0.00498015
0.00498421
0.00498828
0.00499234
0.0049964
0.00500047
0.00500454
0.00500861
0.00501269
0.00501676
0.00502083
0.00502491
0.00502899
0.00503307
0.00503715
0.00504124
0.00504532
0.00504941
0.0050535
0.00505759
0.00506168
0.00506578
0.00506987
0.00507397
0.00507807
0.00508217
0.00508627
0.00509037
0.00509448
0.00509858
0.00510269
0.0051068
0.00511092
0.00511503
0.00511914
0.00512326
0.00512738
0.0051315
0.00513562
0.00513974
0.00514387
0.00514799
0.00515213
0.00515625
0.00516038
0.00516452
0.00516865
0.00517279
0.00517693
0.00518107
0.00518521
0.00518936
0.0051935
0.00519765
0.0052018
0.00520595
0.0052101
0.00521425
0.00521841
0.00522257
0.00522672
0.00523088
0.00523504
0.00523921
0.00524337
0.00524754
0.00525171
0.00525588
0.00526005
0.00526422
0.0052684
0.00527257
0.00527675
0.00528093
0.00528512
0.0052893
0.00529348
0.00529767
0.00530186
0.00530605
0.00531024
0.00531443
0.00531862
0.00532282
0.00532702
0.00533122
0.00533542
0.00533962
0.00534383
0.00534803
0.00535224
0.00535645
0.00536066
0.00536487
0.00536909
0.00537331
0.00537752
0.00538174
0.00538596
0.00539019
0.00539441
0.00539864
0.00540287
0.00540709
0.00541133
0.00541556
0.00541979
0.00542403
0.00542827
0.00543251
0.00543675
0.00544099
0.00544524
0.00544948
0.00545373