/*--------------------------------*- C++ -*----------------------------------*\
| =========                 |                                                 |
| \\      /  F ield         | OpenFOAM: The Open Source CFD Toolbox           |
|  \\    /   O peration     | Version:  2206                                  |
|   \\  /    A nd           | Website:  www.openfoam.com                      |
|    \\/     M anipulation  |                                                 |
\*---------------------------------------------------------------------------*/
FoamFile
{
    version     2.0;
    format      ascii;
    arch        "LSB;label=32;scalar=64";
    class       volScalarField;
    location    "3";
    object      p;
}
// * * * * * * * * * * * * * * * * * * * * * * * * * * * * * * * * * * * * * //

dimensions      [0 2 -2 0 0 0 0];

internalField   nonuniform List<scalar> 
36000
(
-0.000214969
-0.00368656
-0.007152
-0.00787479
-0.00560179
-0.00279055
0.16326
0.158359
0.152857
0.150069
0.150862
0.152718
0.542629
0.537668
0.532219
0.529741
0.531021
0.533323
1.14893
1.14429
1.13944
1.13794
1.14031
1.1435
2.00224
1.99772
1.99317
1.99225
1.99531
1.99905
3.1153
3.11081
3.10638
3.10574
3.10917
3.11322
4.49553
4.49102
4.4866
4.48604
4.48959
4.49376
6.14386
6.13934
6.13492
6.13438
6.13798
6.14218
8.05869
8.05416
8.04972
8.04915
8.05273
8.05693
10.2368
10.2322
10.2278
10.2272
10.2308
10.235
12.6759
12.6714
12.667
12.6664
12.67
12.6742
15.3742
15.3697
15.3652
15.3647
15.3683
15.3725
18.3303
18.3258
18.3214
18.3208
18.3244
18.3286
21.543
21.5385
21.534
21.5335
21.5371
21.5412
25.0115
25.007
25.0025
25.002
25.0055
25.0097
28.7349
28.7303
28.7259
28.7253
28.7289
28.733
32.7127
32.7081
32.7037
32.7031
32.7067
32.7108
36.9443
36.9398
36.9353
36.9348
36.9383
36.9425
41.4297
41.4252
41.4207
41.4202
41.4237
41.4279
46.1684
46.1638
46.1594
46.1588
46.1624
46.1665
51.1601
51.1556
51.1511
51.1505
51.1541
51.1583
56.4046
56.4001
56.3957
56.3951
56.3986
56.4028
61.902
61.8974
61.893
61.8924
61.896
61.9001
67.652
67.6475
67.643
67.6425
67.646
67.6502
73.6547
73.6501
73.6457
73.6451
73.6487
73.6528
79.9097
79.9052
79.9008
79.9002
79.9037
79.9079
86.4172
86.4127
86.4083
86.4077
86.4112
86.4154
93.1771
93.1726
93.1681
93.1675
93.1711
93.1753
100.189
100.185
100.18
100.18
100.183
100.187
107.454
107.449
107.445
107.444
107.448
107.452
114.97
114.966
114.962
114.961
114.965
114.969
122.739
122.735
122.73
122.73
122.733
122.738
130.76
130.756
130.751
130.751
130.754
130.759
139.033
139.029
139.024
139.024
139.027
139.032
147.558
147.554
147.549
147.549
147.552
147.557
156.335
156.331
156.326
156.326
156.329
156.333
165.364
165.359
165.355
165.354
165.358
165.362
174.645
174.64
174.636
174.635
174.639
174.643
184.177
184.173
184.168
184.168
184.171
184.175
193.961
193.957
193.952
193.952
193.955
193.96
203.998
203.993
203.989
203.988
203.992
203.996
214.286
214.281
214.277
214.276
214.28
214.284
224.825
224.821
224.816
224.816
224.819
224.824
235.617
235.612
235.608
235.607
235.611
235.615
246.66
246.656
246.651
246.651
246.654
246.659
257.955
257.951
257.947
257.946
257.95
257.954
269.502
269.498
269.493
269.493
269.496
269.501
281.301
281.296
281.292
281.291
281.295
281.299
293.351
293.347
293.342
293.342
293.345
293.349
305.653
305.649
305.644
305.643
305.647
305.651
318.206
318.202
318.197
318.197
318.2
318.205
331.011
331.007
331.002
331.002
331.005
331.01
344.068
344.063
344.059
344.058
344.062
344.066
357.376
357.372
357.367
357.366
357.37
357.374
370.936
370.931
370.927
370.926
370.93
370.934
384.747
384.742
384.738
384.737
384.741
384.745
398.81
398.805
398.801
398.8
398.804
398.808
413.124
413.119
413.115
413.114
413.118
413.122
427.69
427.685
427.681
427.68
427.684
427.688
442.507
442.502
442.498
442.497
442.501
442.505
457.576
457.571
457.567
457.566
457.57
457.574
472.896
472.892
472.887
472.887
472.89
472.894
488.468
488.464
488.459
488.459
488.462
488.466
504.292
504.287
504.283
504.282
504.286
504.29
520.366
520.362
520.357
520.357
520.36
520.365
536.693
536.688
536.684
536.683
536.687
536.691
553.271
553.266
553.262
553.261
553.265
553.269
570.1
570.096
570.091
570.091
570.094
570.098
587.181
587.177
587.172
587.172
587.175
587.179
604.513
604.509
604.504
604.504
604.507
604.512
622.097
622.093
622.088
622.088
622.091
622.095
639.933
639.928
639.924
639.923
639.927
639.931
658.019
658.015
658.01
658.01
658.013
658.017
676.358
676.353
676.349
676.348
676.352
676.356
694.947
694.943
694.938
694.938
694.941
694.945
713.788
713.784
713.779
713.779
713.782
713.787
732.881
732.877
732.872
732.872
732.875
732.879
752.225
752.221
752.216
752.216
752.219
752.223
771.821
771.816
771.812
771.811
771.815
771.819
791.668
791.663
791.659
791.658
791.662
791.666
811.766
811.762
811.757
811.757
811.76
811.764
832.116
832.112
832.107
832.106
832.11
832.114
852.717
852.713
852.708
852.708
852.711
852.716
873.57
873.566
873.561
873.56
873.564
873.568
894.674
894.67
894.665
894.665
894.668
894.672
916.03
916.025
916.021
916.02
916.024
916.028
937.637
937.632
937.628
937.627
937.631
937.635
959.495
959.49
959.486
959.485
959.489
959.493
981.605
981.6
981.596
981.595
981.599
981.603
1003.97
1003.96
1003.96
1003.96
1003.96
1003.96
1026.58
1026.57
1026.57
1026.57
1026.57
1026.58
1049.44
1049.44
1049.43
1049.43
1049.44
1049.44
1072.56
1072.55
1072.55
1072.55
1072.55
1072.56
1095.92
1095.92
1095.92
1095.92
1095.92
1095.92
1119.54
1119.54
1119.53
1119.53
1119.54
1119.54
1143.41
1143.41
1143.4
1143.4
1143.41
1143.41
1167.53
1167.53
1167.52
1167.52
1167.53
1167.53
1191.91
1191.9
1191.9
1191.9
1191.9
1191.9
1216.53
1216.53
1216.52
1216.52
1216.52
1216.53
1241.41
1241.4
1241.4
1241.4
1241.4
1241.4
1266.53
1266.53
1266.52
1266.52
1266.53
1266.53
1291.91
1291.91
1291.9
1291.9
1291.9
1291.91
1317.54
1317.54
1317.53
1317.53
1317.53
1317.54
1343.42
1343.42
1343.41
1343.41
1343.41
1343.42
1369.55
1369.55
1369.54
1369.54
1369.55
1369.55
1395.94
1395.93
1395.93
1395.93
1395.93
1395.93
1422.57
1422.57
1422.56
1422.56
1422.57
1422.57
1449.46
1449.45
1449.45
1449.45
1449.45
1449.46
1476.6
1476.59
1476.59
1476.59
1476.59
1476.59
1503.99
1503.98
1503.98
1503.98
1503.98
1503.98
1531.63
1531.62
1531.62
1531.62
1531.62
1531.62
1559.52
1559.51
1559.51
1559.51
1559.51
1559.52
1587.66
1587.66
1587.65
1587.65
1587.66
1587.66
1616.06
1616.05
1616.05
1616.05
1616.05
1616.05
1644.7
1644.7
1644.69
1644.69
1644.7
1644.7
1673.6
1673.6
1673.59
1673.59
1673.59
1673.6
1702.75
1702.74
1702.74
1702.74
1702.74
1702.75
1732.15
1732.14
1732.14
1732.14
1732.14
1732.15
1761.8
1761.8
1761.79
1761.79
1761.79
1761.8
1791.7
1791.7
1791.69
1791.69
1791.7
1791.7
1821.86
1821.85
1821.85
1821.85
1821.85
1821.86
1852.26
1852.26
1852.25
1852.25
1852.26
1852.26
1882.92
1882.92
1882.91
1882.91
1882.91
1882.92
1913.83
1913.82
1913.82
1913.82
1913.82
1913.83
1944.99
1944.98
1944.98
1944.98
1944.98
1944.99
1976.4
1976.39
1976.39
1976.39
1976.39
1976.4
2008.06
2008.06
2008.05
2008.05
2008.06
2008.06
2039.98
2039.97
2039.97
2039.97
2039.97
2039.97
2072.14
2072.14
2072.13
2072.13
2072.13
2072.14
2104.56
2104.55
2104.55
2104.55
2104.55
2104.56
2137.23
2137.22
2137.22
2137.22
2137.22
2137.22
2170.14
2170.14
2170.14
2170.13
2170.14
2170.14
2203.31
2203.31
2203.31
2203.31
2203.31
2203.31
2236.74
2236.73
2236.73
2236.73
2236.73
2236.73
2270.41
2270.41
2270.4
2270.4
2270.4
2270.41
2304.33
2304.33
2304.33
2304.33
2304.33
2304.33
2338.51
2338.51
2338.5
2338.5
2338.5
2338.51
2372.94
2372.93
2372.93
2372.93
2372.93
2372.94
2407.62
2407.61
2407.61
2407.61
2407.61
2407.61
2442.55
2442.54
2442.54
2442.54
2442.54
2442.54
2477.73
2477.72
2477.72
2477.72
2477.72
2477.73
2513.16
2513.16
2513.15
2513.15
2513.16
2513.16
2548.85
2548.84
2548.84
2548.84
2548.84
2548.84
2584.78
2584.78
2584.77
2584.77
2584.77
2584.78
2620.97
2620.96
2620.96
2620.96
2620.96
2620.97
2657.41
2657.4
2657.4
2657.4
2657.4
2657.4
2694.1
2694.09
2694.09
2694.09
2694.09
2694.09
2731.04
2731.03
2731.03
2731.03
2731.03
2731.03
2768.23
2768.22
2768.22
2768.22
2768.22
2768.23
2805.67
2805.67
2805.66
2805.66
2805.67
2805.67
2843.37
2843.36
2843.36
2843.36
2843.36
2843.37
2881.31
2881.31
2881.3
2881.3
2881.31
2881.31
2919.51
2919.51
2919.5
2919.5
2919.5
2919.51
2957.96
2957.96
2957.95
2957.95
2957.95
2957.96
2996.66
2996.66
2996.65
2996.65
2996.65
2996.66
3035.61
3035.61
3035.6
3035.6
3035.61
3035.61
3074.81
3074.81
3074.81
3074.81
3074.81
3074.81
3114.27
3114.26
3114.26
3114.26
3114.26
3114.27
3153.98
3153.97
3153.97
3153.97
3153.97
3153.97
3193.93
3193.93
3193.92
3193.92
3193.93
3193.93
3234.14
3234.14
3234.13
3234.13
3234.13
3234.14
3274.6
3274.6
3274.59
3274.59
3274.59
3274.6
3315.31
3315.31
3315.3
3315.3
3315.31
3315.31
3356.27
3356.27
3356.26
3356.26
3356.27
3356.27
3397.49
3397.48
3397.48
3397.48
3397.48
3397.49
3438.95
3438.95
3438.94
3438.94
3438.95
3438.95
3480.67
3480.66
3480.66
3480.66
3480.66
3480.67
3522.64
3522.63
3522.63
3522.63
3522.63
3522.64
3564.86
3564.85
3564.85
3564.85
3564.85
3564.85
3607.33
3607.32
3607.32
3607.32
3607.32
3607.32
3650.05
3650.04
3650.04
3650.04
3650.04
3650.05
3693.02
3693.02
3693.01
3693.01
3693.02
3693.02
3736.25
3736.24
3736.24
3736.24
3736.24
3736.24
3779.72
3779.72
3779.71
3779.71
3779.72
3779.72
3823.45
3823.44
3823.44
3823.44
3823.44
3823.45
3867.43
3867.42
3867.42
3867.42
3867.42
3867.43
3911.66
3911.65
3911.65
3911.65
3911.65
3911.66
3956.14
3956.13
3956.13
3956.13
3956.13
3956.14
4000.87
4000.87
4000.86
4000.86
4000.87
4000.87
4045.86
4045.85
4045.85
4045.85
4045.85
4045.85
4091.09
4091.09
4091.08
4091.08
4091.08
4091.09
4136.58
4136.57
4136.57
4136.57
4136.57
4136.58
4182.32
4182.31
4182.31
4182.31
4182.31
4182.31
4228.3
4228.3
4228.3
4228.3
4228.3
4228.3
4274.55
4274.54
4274.54
4274.54
4274.54
4274.54
4321.04
4321.03
4321.03
4321.03
4321.03
4321.04
4367.78
4367.78
4367.77
4367.77
4367.77
4367.78
4414.78
4414.77
4414.77
4414.77
4414.77
4414.77
4462.02
4462.02
4462.01
4462.01
4462.01
4462.02
4509.52
4509.51
4509.51
4509.51
4509.51
4509.52
4557.27
4557.26
4557.26
4557.26
4557.26
4557.27
4605.27
4605.26
4605.26
4605.26
4605.26
4605.26
4653.52
4653.51
4653.51
4653.51
4653.51
4653.52
4702.02
4702.02
4702.01
4702.01
4702.01
4702.02
4750.77
4750.77
4750.77
4750.77
4750.77
4750.77
4799.78
4799.78
4799.77
4799.77
4799.77
4799.78
4849.04
4849.03
4849.03
4849.03
4849.03
4849.03
4898.54
4898.54
4898.54
4898.54
4898.54
4898.54
4948.3
4948.3
4948.29
4948.29
4948.3
4948.3
4998.31
4998.31
4998.31
4998.3
4998.31
4998.31
5048.58
5048.57
5048.57
5048.57
5048.57
5048.57
5099.09
5099.09
5099.08
5099.08
5099.08
5099.09
5149.85
5149.85
5149.85
5149.84
5149.85
5149.85
5200.87
5200.87
5200.86
5200.86
5200.86
5200.87
5252.14
5252.13
5252.13
5252.13
5252.13
5252.14
5303.66
5303.65
5303.65
5303.65
5303.65
5303.65
5355.43
5355.42
5355.42
5355.42
5355.42
5355.42
5407.45
5407.44
5407.44
5407.44
5407.44
5407.45
5459.72
5459.72
5459.71
5459.71
5459.71
5459.72
5512.24
5512.24
5512.24
5512.23
5512.24
5512.24
5565.02
5565.02
5565.01
5565.01
5565.01
5565.02
5618.05
5618.04
5618.04
5618.04
5618.04
5618.04
5671.32
5671.32
5671.32
5671.31
5671.32
5671.32
5724.85
5724.85
5724.84
5724.84
5724.85
5724.85
5778.63
5778.63
5778.63
5778.62
5778.63
5778.63
5832.67
5832.66
5832.66
5832.66
5832.66
5832.66
5886.95
5886.94
5886.94
5886.94
5886.94
5886.95
5941.48
5941.48
5941.48
5941.47
5941.48
5941.48
5996.27
5996.27
5996.26
5996.26
5996.26
5996.27
6051.31
6051.3
6051.3
6051.3
6051.3
6051.31
6106.6
6106.59
6106.59
6106.59
6106.59
6106.59
6162.14
6162.13
6162.13
6162.13
6162.13
6162.13
6217.93
6217.92
6217.92
6217.92
6217.92
6217.93
6273.97
6273.97
6273.96
6273.96
6273.96
6273.97
6330.26
6330.26
6330.25
6330.25
6330.26
6330.26
6386.81
6386.8
6386.8
6386.8
6386.8
6386.81
6443.61
6443.6
6443.6
6443.6
6443.6
6443.6
6500.65
6500.65
6500.64
6500.64
6500.65
6500.65
6557.95
6557.95
6557.94
6557.94
6557.95
6557.95
6615.5
6615.5
6615.49
6615.49
6615.5
6615.5
6673.31
6673.3
6673.3
6673.3
6673.3
6673.3
6731.36
6731.35
6731.35
6731.35
6731.35
6731.36
6789.66
6789.66
6789.65
6789.65
6789.66
6789.66
6848.22
6848.21
6848.21
6848.21
6848.21
6848.22
6907.03
6907.02
6907.02
6907.02
6907.02
6907.02
6966.08
6966.08
6966.08
6966.08
6966.08
6966.08
7025.39
7025.39
7025.39
7025.39
7025.39
7025.39
7084.96
7084.95
7084.95
7084.95
7084.95
7084.95
7144.77
7144.76
7144.76
7144.76
7144.76
7144.77
7204.83
7204.83
7204.82
7204.82
7204.83
7204.83
7265.15
7265.14
7265.14
7265.14
7265.14
7265.15
7325.71
7325.71
7325.71
7325.7
7325.71
7325.71
7386.53
7386.53
7386.52
7386.52
7386.53
7386.53
7447.6
7447.6
7447.59
7447.59
7447.6
7447.6
7508.92
7508.92
7508.91
7508.91
7508.92
7508.92
7570.49
7570.49
7570.48
7570.48
7570.49
7570.49
7632.32
7632.31
7632.31
7632.31
7632.31
7632.31
7694.39
7694.39
7694.38
7694.38
7694.39
7694.39
7756.72
7756.71
7756.71
7756.71
7756.71
7756.72
7819.29
7819.29
7819.29
7819.28
7819.29
7819.29
7882.12
7882.12
7882.11
7882.11
7882.12
7882.12
7945.2
7945.2
7945.19
7945.19
7945.2
7945.2
8008.53
8008.53
8008.52
8008.52
8008.53
8008.53
8072.12
8072.11
8072.11
8072.11
8072.11
8072.11
8135.95
8135.95
8135.94
8135.94
8135.94
8135.95
8200.04
8200.03
8200.03
8200.03
8200.03
8200.03
8264.37
8264.37
8264.36
8264.36
8264.37
8264.37
8328.96
8328.96
8328.95
8328.95
8328.95
8328.96
8393.8
8393.79
8393.79
8393.79
8393.79
8393.8
8458.89
8458.88
8458.88
8458.88
8458.88
8458.89
8524.23
8524.23
8524.22
8524.22
8524.22
8524.23
8589.82
8589.82
8589.82
8589.81
8589.82
8589.82
8655.67
8655.66
8655.66
8655.66
8655.66
8655.67
8721.76
8721.76
8721.76
8721.75
8721.76
8721.76
8788.11
8788.11
8788.1
8788.1
8788.11
8788.11
8854.71
8854.71
8854.7
8854.7
8854.7
8854.71
8921.56
8921.55
8921.55
8921.55
8921.55
8921.56
8988.66
8988.66
8988.65
8988.65
8988.65
8988.66
9056.01
9056.01
9056
9056
9056.01
9056.01
9123.62
9123.61
9123.61
9123.61
9123.61
9123.61
9191.47
9191.47
9191.46
9191.46
9191.47
9191.47
9259.58
9259.57
9259.57
9259.57
9259.57
9259.58
9327.94
9327.93
9327.93
9327.93
9327.93
9327.93
9396.54
9396.54
9396.54
9396.54
9396.54
9396.54
9465.41
9465.4
9465.4
9465.4
9465.4
9465.4
9534.52
9534.51
9534.51
9534.51
9534.51
9534.52
9603.88
9603.88
9603.87
9603.87
9603.87
9603.88
9673.49
9673.49
9673.49
9673.48
9673.49
9673.49
9743.36
9743.36
9743.35
9743.35
9743.35
9743.36
9813.48
9813.47
9813.47
9813.47
9813.47
9813.48
9883.85
9883.84
9883.84
9883.84
9883.84
9883.84
9954.46
9954.46
9954.46
9954.46
9954.46
9954.46
10025.3
10025.3
10025.3
10025.3
10025.3
10025.3
10096.5
10096.5
10096.4
10096.4
10096.5
10096.5
10167.8
10167.8
10167.8
10167.8
10167.8
10167.8
10239.5
10239.5
10239.4
10239.4
10239.5
10239.5
10311.3
10311.3
10311.3
10311.3
10311.3
10311.3
10383.5
10383.5
10383.5
10383.5
10383.5
10383.5
10455.8
10455.8
10455.8
10455.8
10455.8
10455.8
10528.5
10528.5
10528.5
10528.5
10528.5
10528.5
10601.4
10601.3
10601.3
10601.3
10601.3
10601.3
10674.5
10674.5
10674.5
10674.5
10674.5
10674.5
10747.9
10747.9
10747.9
10747.9
10747.9
10747.9
10821.5
10821.5
10821.5
10821.5
10821.5
10821.5
10895.4
10895.4
10895.4
10895.4
10895.4
10895.4
10969.5
10969.5
10969.5
10969.5
10969.5
10969.5
11043.9
11043.9
11043.9
11043.9
11043.9
11043.9
11118.6
11118.6
11118.6
11118.5
11118.6
11118.6
11193.5
11193.4
11193.4
11193.4
11193.4
11193.4
11268.6
11268.6
11268.6
11268.6
11268.6
11268.6
11344
11344
11344
11344
11344
11344
11419.6
11419.6
11419.6
11419.6
11419.6
11419.6
11495.5
11495.5
11495.5
11495.5
11495.5
11495.5
11571.7
11571.7
11571.7
11571.7
11571.7
11571.7
11648.1
11648.1
11648.1
11648.1
11648.1
11648.1
11724.7
11724.7
11724.7
11724.7
11724.7
11724.7
11801.6
11801.6
11801.6
11801.6
11801.6
11801.6
11878.8
11878.8
11878.8
11878.8
11878.8
11878.8
11956.2
11956.2
11956.2
11956.2
11956.2
11956.2
12033.9
12033.8
12033.8
12033.8
12033.8
12033.9
12111.8
12111.8
12111.8
12111.8
12111.8
12111.8
12189.9
12189.9
12189.9
12189.9
12189.9
12189.9
12268.3
12268.3
12268.3
12268.3
12268.3
12268.3
12347
12347
12347
12347
12347
12347
12425.9
12425.9
12425.9
12425.9
12425.9
12425.9
12505.1
12505.1
12505.1
12505.1
12505.1
12505.1
12584.5
12584.5
12584.5
12584.5
12584.5
12584.5
12664.2
12664.1
12664.1
12664.1
12664.1
12664.2
12744.1
12744.1
12744.1
12744.1
12744.1
12744.1
12824.2
12824.2
12824.2
12824.2
12824.2
12824.2
12904.7
12904.7
12904.7
12904.7
12904.7
12904.7
12985.3
12985.3
12985.3
12985.3
12985.3
12985.3
13066.3
13066.3
13066.3
13066.3
13066.3
13066.3
13147.4
13147.4
13147.4
13147.4
13147.4
13147.4
13228.9
13228.9
13228.9
13228.9
13228.9
13228.9
13310.5
13310.5
13310.5
13310.5
13310.5
13310.5
13392.5
13392.5
13392.5
13392.5
13392.5
13392.5
13474.7
13474.6
13474.6
13474.6
13474.6
13474.6
13557.1
13557.1
13557.1
13557.1
13557.1
13557.1
13639.8
13639.8
13639.8
13639.8
13639.8
13639.8
13722.7
13722.7
13722.7
13722.7
13722.7
13722.7
13805.9
13805.9
13805.9
13805.9
13805.9
13805.9
13889.3
13889.3
13889.3
13889.3
13889.3
13889.3
13973
13973
13973
13973
13973
13973
14057
14056.9
14056.9
14056.9
14056.9
14057
14141.1
14141.1
14141.1
14141.1
14141.1
14141.1
14225.6
14225.6
14225.6
14225.6
14225.6
14225.6
14310.3
14310.3
14310.3
14310.3
14310.3
14310.3
14395.2
14395.2
14395.2
14395.2
14395.2
14395.2
14480.4
14480.4
14480.4
14480.4
14480.4
14480.4
14565.9
14565.9
14565.9
14565.9
14565.9
14565.9
14651.6
14651.6
14651.6
14651.6
14651.6
14651.6
14737.5
14737.5
14737.5
14737.5
14737.5
14737.5
14823.7
14823.7
14823.7
14823.7
14823.7
14823.7
14910.2
14910.2
14910.2
14910.2
14910.2
14910.2
14996.9
14996.9
14996.9
14996.9
14996.9
14996.9
15083.8
15083.8
15083.8
15083.8
15083.8
15083.8
15171
15171
15171
15171
15171
15171
15258.5
15258.5
15258.5
15258.5
15258.5
15258.5
15346.2
15346.2
15346.2
15346.2
15346.2
15346.2
15434.2
15434.2
15434.2
15434.2
15434.2
15434.2
15522.4
15522.4
15522.4
15522.4
15522.4
15522.4
15610.8
15610.8
15610.8
15610.8
15610.8
15610.8
15699.6
15699.6
15699.6
15699.6
15699.6
15699.6
15788.5
15788.5
15788.5
15788.5
15788.5
15788.5
15877.7
15877.7
15877.7
15877.7
15877.7
15877.7
15967.2
15967.2
15967.2
15967.2
15967.2
15967.2
16056.9
16056.9
16056.9
16056.9
16056.9
16056.9
16146.9
16146.9
16146.9
16146.9
16146.9
16146.9
16237.1
16237.1
16237.1
16237.1
16237.1
16237.1
16327.6
16327.6
16327.6
16327.6
16327.6
16327.6
16418.3
16418.3
16418.3
16418.3
16418.3
16418.3
16509.3
16509.3
16509.3
16509.3
16509.3
16509.3
16600.5
16600.5
16600.5
16600.5
16600.5
16600.5
16692
16692
16692
16692
16692
16692
16783.7
16783.7
16783.7
16783.7
16783.7
16783.7
16875.7
16875.7
16875.7
16875.7
16875.7
16875.7
16968
16968
16968
16968
16968
16968
17060.4
17060.4
17060.4
17060.4
17060.4
17060.4
17153.2
17153.2
17153.2
17153.2
17153.2
17153.2
17246.2
17246.2
17246.2
17246.2
17246.2
17246.2
17339.4
17339.4
17339.4
17339.4
17339.4
17339.4
17432.9
17432.9
17432.9
17432.9
17432.9
17432.9
17526.6
17526.6
17526.6
17526.6
17526.6
17526.6
17620.6
17620.6
17620.6
17620.6
17620.6
17620.6
17714.9
17714.9
17714.9
17714.9
17714.9
17714.9
17809.4
17809.4
17809.4
17809.4
17809.4
17809.4
17904.1
17904.1
17904.1
17904.1
17904.1
17904.1
17999.1
17999.1
17999.1
17999.1
17999.1
17999.1
18094.4
18094.4
18094.4
18094.4
18094.4
18094.4
18189.9
18189.9
18189.9
18189.9
18189.9
18189.9
18285.6
18285.6
18285.6
18285.6
18285.6
18285.6
18381.6
18381.6
18381.6
18381.6
18381.6
18381.6
18477.9
18477.9
18477.9
18477.9
18477.9
18477.9
18574.4
18574.4
18574.4
18574.4
18574.4
18574.4
18671.1
18671.1
18671.1
18671.1
18671.1
18671.1
18768.1
18768.1
18768.1
18768.1
18768.1
18768.1
18865.4
18865.4
18865.4
18865.4
18865.4
18865.4
18962.9
18962.9
18962.9
18962.9
18962.9
18962.9
19060.7
19060.7
19060.7
19060.7
19060.7
19060.7
19158.7
19158.7
19158.7
19158.7
19158.7
19158.7
19257
19256.9
19256.9
19256.9
19256.9
19257
19355.5
19355.5
19355.5
19355.5
19355.5
19355.5
19454.2
19454.2
19454.2
19454.2
19454.2
19454.2
19553.3
19553.3
19553.2
19553.2
19553.3
19553.3
19652.5
19652.5
19652.5
19652.5
19652.5
19652.5
19752
19752
19752
19752
19752
19752
19851.8
19851.8
19851.8
19851.8
19851.8
19851.8
19951.8
19951.8
19951.8
19951.8
19951.8
19951.8
20052.1
20052.1
20052.1
20052.1
20052.1
20052.1
20152.6
20152.6
20152.6
20152.6
20152.6
20152.6
20253.4
20253.4
20253.4
20253.4
20253.4
20253.4
20354.5
20354.4
20354.4
20354.4
20354.4
20354.5
20455.7
20455.7
20455.7
20455.7
20455.7
20455.7
20557.3
20557.3
20557.3
20557.3
20557.3
20557.3
20659
20659
20659
20659
20659
20659
20761.1
20761.1
20761.1
20761.1
20761.1
20761.1
20863.4
20863.4
20863.4
20863.4
20863.4
20863.4
20965.9
20965.9
20965.9
20965.9
20965.9
20965.9
21068.7
21068.7
21068.7
21068.7
21068.7
21068.7
21171.7
21171.7
21171.7
21171.7
21171.7
21171.7
21275
21275
21275
21275
21275
21275
21378.6
21378.6
21378.6
21378.6
21378.6
21378.6
21482.4
21482.4
21482.4
21482.4
21482.4
21482.4
21586.4
21586.4
21586.4
21586.4
21586.4
21586.4
21690.7
21690.7
21690.7
21690.7
21690.7
21690.7
21795.2
21795.2
21795.2
21795.2
21795.2
21795.2
21900
21900
21900
21900
21900
21900
22005.1
22005.1
22005.1
22005.1
22005.1
22005.1
22110.4
22110.4
22110.4
22110.4
22110.4
22110.4
22216
22215.9
22215.9
22215.9
22215.9
22215.9
22321.8
22321.8
22321.7
22321.7
22321.7
22321.8
22427.8
22427.8
22427.8
22427.8
22427.8
22427.8
22534.1
22534.1
22534.1
22534.1
22534.1
22534.1
22640.7
22640.7
22640.7
22640.7
22640.7
22640.7
22747.5
22747.5
22747.5
22747.5
22747.5
22747.5
22854.5
22854.5
22854.5
22854.5
22854.5
22854.5
22961.9
22961.9
22961.8
22961.8
22961.9
22961.9
23069.4
23069.4
23069.4
23069.4
23069.4
23069.4
23177.2
23177.2
23177.2
23177.2
23177.2
23177.2
23285.3
23285.3
23285.3
23285.3
23285.3
23285.3
23393.6
23393.6
23393.6
23393.6
23393.6
23393.6
23502.2
23502.2
23502.2
23502.2
23502.2
23502.2
23611
23611
23611
23611
23611
23611
23720.1
23720.1
23720.1
23720.1
23720.1
23720.1
23829.4
23829.4
23829.4
23829.4
23829.4
23829.4
23939
23939
23939
23939
23939
23939
24048.8
24048.8
24048.8
24048.8
24048.8
24048.8
24158.9
24158.9
24158.9
24158.9
24158.9
24158.9
24269.2
24269.2
24269.2
24269.2
24269.2
24269.2
24379.8
24379.8
24379.8
24379.8
24379.8
24379.8
24490.6
24490.6
24490.6
24490.6
24490.6
24490.6
24601.7
24601.7
24601.7
24601.7
24601.7
24601.7
24713
24713
24713
24713
24713
24713
24824.6
24824.6
24824.6
24824.6
24824.6
24824.6
24936.4
24936.4
24936.4
24936.4
24936.4
24936.4
25048.5
25048.5
25048.5
25048.5
25048.5
25048.5
25160.9
25160.9
25160.9
25160.9
25160.9
25160.9
25273.5
25273.5
25273.4
25273.4
25273.5
25273.5
25386.3
25386.3
25386.3
25386.3
25386.3
25386.3
25499.4
25499.4
25499.4
25499.4
25499.4
25499.4
25612.7
25612.7
25612.7
25612.7
25612.7
25612.7
25726.3
25726.3
25726.3
25726.3
25726.3
25726.3
25840.2
25840.2
25840.2
25840.2
25840.2
25840.2
25954.3
25954.3
25954.3
25954.3
25954.3
25954.3
26068.6
26068.6
26068.6
26068.6
26068.6
26068.6
26183.2
26183.2
26183.2
26183.2
26183.2
26183.2
26298.1
26298.1
26298.1
26298.1
26298.1
26298.1
26413.2
26413.2
26413.2
26413.2
26413.2
26413.2
26528.5
26528.5
26528.5
26528.5
26528.5
26528.5
26644.1
26644.1
26644.1
26644.1
26644.1
26644.1
26760
26760
26760
26760
26760
26760
26876.1
26876.1
26876.1
26876.1
26876.1
26876.1
26992.5
26992.5
26992.4
26992.4
26992.5
26992.5
27109.1
27109.1
27109.1
27109.1
27109.1
27109.1
27225.9
27225.9
27225.9
27225.9
27225.9
27225.9
27343
27343
27343
27343
27343
27343
27460.4
27460.4
27460.4
27460.4
27460.4
27460.4
27578
27578
27578
27578
27578
27578
27695.9
27695.9
27695.9
27695.9
27695.9
27695.9
27814
27814
27814
27814
27814
27814
27932.4
27932.4
27932.4
27932.4
27932.4
27932.4
28051
28051
28051
28051
28051
28051
28169.9
28169.9
28169.9
28169.9
28169.9
28169.9
28289
28289
28289
28289
28289
28289
28408.4
28408.4
28408.4
28408.4
28408.4
28408.4
28528
28528
28528
28528
28528
28528
28647.9
28647.9
28647.9
28647.9
28647.9
28647.9
28768
28768
28768
28768
28768
28768
28888.4
28888.4
28888.4
28888.4
28888.4
28888.4
29009
29009
29009
29009
29009
29009
29129.9
29129.9
29129.9
29129.9
29129.9
29129.9
29251
29251
29251
29251
29251
29251
29372.4
29372.4
29372.4
29372.4
29372.4
29372.4
29494
29494
29494
29494
29494
29494
29615.9
29615.9
29615.9
29615.9
29615.9
29615.9
29738.1
29738.1
29738.1
29738.1
29738.1
29738.1
29860.5
29860.5
29860.5
29860.5
29860.5
29860.5
29983.1
29983.1
29983.1
29983.1
29983.1
29983.1
30106
30106
30106
30106
30106
30106
30229.1
30229.1
30229.1
30229.1
30229.1
30229.1
30352.5
30352.5
30352.5
30352.5
30352.5
30352.5
30476.2
30476.2
30476.2
30476.2
30476.2
30476.2
30600.1
30600.1
30600.1
30600.1
30600.1
30600.1
30724.2
30724.2
30724.2
30724.2
30724.2
30724.2
30848.6
30848.6
30848.6
30848.6
30848.6
30848.6
30973.3
30973.3
30973.3
30973.3
30973.3
30973.3
31098.2
31098.2
31098.2
31098.2
31098.2
31098.2
31223.4
31223.3
31223.3
31223.3
31223.3
31223.4
31348.8
31348.8
31348.7
31348.7
31348.8
31348.8
31474.4
31474.4
31474.4
31474.4
31474.4
31474.4
31600.3
31600.3
31600.3
31600.3
31600.3
31600.3
31726.5
31726.5
31726.5
31726.5
31726.5
31726.5
31852.9
31852.9
31852.9
31852.9
31852.9
31852.9
31979.6
31979.6
31979.6
31979.6
31979.6
31979.6
32106.5
32106.5
32106.5
32106.5
32106.5
32106.5
32233.6
32233.6
32233.6
32233.6
32233.6
32233.6
32361.1
32361.1
32361
32361
32361.1
32361.1
32488.7
32488.7
32488.7
32488.7
32488.7
32488.7
32616.6
32616.6
32616.6
32616.6
32616.6
32616.6
32744.8
32744.8
32744.8
32744.8
32744.8
32744.8
32873.2
32873.2
32873.2
32873.2
32873.2
32873.2
33001.9
33001.9
33001.9
33001.9
33001.9
33001.9
33130.8
33130.8
33130.8
33130.8
33130.8
33130.8
33260
33260
33260
33260
33260
33260
33389.4
33389.4
33389.4
33389.4
33389.4
33389.4
33519.1
33519.1
33519.1
33519.1
33519.1
33519.1
33649
33649
33649
33649
33649
33649
33779.2
33779.2
33779.2
33779.2
33779.2
33779.2
33909.7
33909.7
33909.7
33909.7
33909.7
33909.7
34040.3
34040.3
34040.3
34040.3
34040.3
34040.3
34171.3
34171.3
34171.3
34171.3
34171.3
34171.3
34302.5
34302.5
34302.5
34302.5
34302.5
34302.5
34433.9
34433.9
34433.9
34433.9
34433.9
34433.9
34565.6
34565.6
34565.6
34565.6
34565.6
34565.6
34697.5
34697.5
34697.5
34697.5
34697.5
34697.5
34829.7
34829.7
34829.7
34829.7
34829.7
34829.7
34962.2
34962.2
34962.2
34962.2
34962.2
34962.2
35094.9
35094.9
35094.9
35094.9
35094.9
35094.9
35227.8
35227.8
35227.8
35227.8
35227.8
35227.8
35361
35361
35361
35361
35361
35361
35494.5
35494.4
35494.4
35494.4
35494.4
35494.5
35628.2
35628.1
35628.1
35628.1
35628.1
35628.2
35762.1
35762.1
35762.1
35762.1
35762.1
35762.1
35896.3
35896.3
35896.3
35896.3
35896.3
35896.3
36030.8
36030.8
36030.8
36030.8
36030.8
36030.8
36165.5
36165.5
36165.5
36165.5
36165.5
36165.5
36300.4
36300.4
36300.4
36300.4
36300.4
36300.4
36435.6
36435.6
36435.6
36435.6
36435.6
36435.6
36571.1
36571.1
36571.1
36571.1
36571.1
36571.1
36706.8
36706.8
36706.8
36706.8
36706.8
36706.8
36842.8
36842.8
36842.7
36842.7
36842.8
36842.8
36979
36979
36979
36979
36979
36979
37115.4
37115.4
37115.4
37115.4
37115.4
37115.4
37252.2
37252.1
37252.1
37252.1
37252.1
37252.1
37389.1
37389.1
37389.1
37389.1
37389.1
37389.1
37526.3
37526.3
37526.3
37526.3
37526.3
37526.3
37663.8
37663.8
37663.8
37663.8
37663.8
37663.8
37801.5
37801.5
37801.5
37801.5
37801.5
37801.5
37939.5
37939.5
37939.5
37939.5
37939.5
37939.5
38077.7
38077.7
38077.7
38077.7
38077.7
38077.7
38216.2
38216.2
38216.2
38216.2
38216.2
38216.2
38354.9
38354.9
38354.9
38354.9
38354.9
38354.9
38493.9
38493.9
38493.9
38493.9
38493.9
38493.9
38633.1
38633.1
38633.1
38633.1
38633.1
38633.1
38772.6
38772.6
38772.6
38772.6
38772.6
38772.6
38912.3
38912.3
38912.3
38912.3
38912.3
38912.3
39052.3
39052.3
39052.3
39052.3
39052.3
39052.3
39192.6
39192.6
39192.5
39192.5
39192.5
39192.6
39333
39333
39333
39333
39333
39333
39473.8
39473.8
39473.8
39473.8
39473.8
39473.8
39614.8
39614.8
39614.8
39614.8
39614.8
39614.8
39756
39756
39756
39756
39756
39756
39897.5
39897.5
39897.5
39897.5
39897.5
39897.5
40039.2
40039.2
40039.2
40039.2
40039.2
40039.2
40181.2
40181.2
40181.2
40181.2
40181.2
40181.2
40323.5
40323.5
40323.5
40323.5
40323.5
40323.5
40466
40466
40466
40466
40466
40466
40608.7
40608.7
40608.7
40608.7
40608.7
40608.7
40751.7
40751.7
40751.7
40751.7
40751.7
40751.7
40895
40895
40895
40895
40895
40895
41038.5
41038.5
41038.5
41038.5
41038.5
41038.5
41182.2
41182.2
41182.2
41182.2
41182.2
41182.2
41326.2
41326.2
41326.2
41326.2
41326.2
41326.2
41470.5
41470.5
41470.5
41470.5
41470.5
41470.5
41615
41615
41615
41615
41615
41615
41759.7
41759.7
41759.7
41759.7
41759.7
41759.7
41904.7
41904.7
41904.7
41904.7
41904.7
41904.7
42050
42050
42050
42050
42050
42050
42195.5
42195.5
42195.5
42195.5
42195.5
42195.5
42341.3
42341.3
42341.3
42341.3
42341.3
42341.3
42487.3
42487.3
42487.3
42487.3
42487.3
42487.3
42633.6
42633.6
42633.6
42633.6
42633.6
42633.6
42780.1
42780.1
42780.1
42780.1
42780.1
42780.1
42926.8
42926.8
42926.8
42926.8
42926.8
42926.8
43073.9
43073.9
43073.9
43073.9
43073.9
43073.9
43221.1
43221.1
43221.1
43221.1
43221.1
43221.1
43368.7
43368.7
43368.7
43368.6
43368.7
43368.7
43516.4
43516.4
43516.4
43516.4
43516.4
43516.4
43664.5
43664.5
43664.4
43664.4
43664.5
43664.5
43812.7
43812.7
43812.7
43812.7
43812.7
43812.7
43961.3
43961.3
43961.3
43961.3
43961.3
43961.3
44110
44110
44110
44110
44110
44110
44259.1
44259.1
44259.1
44259.1
44259.1
44259.1
44408.4
44408.3
44408.3
44408.3
44408.3
44408.3
44557.9
44557.9
44557.9
44557.9
44557.9
44557.9
44707.7
44707.7
44707.7
44707.7
44707.7
44707.7
44857.7
44857.7
44857.7
44857.7
44857.7
44857.7
45008
45008
45008
45008
45008
45008
45158.5
45158.5
45158.5
45158.5
45158.5
45158.5
45309.3
45309.3
45309.3
45309.3
45309.3
45309.3
45460.4
45460.4
45460.3
45460.3
45460.4
45460.4
45611.6
45611.6
45611.6
45611.6
45611.6
45611.6
45763.2
45763.2
45763.2
45763.2
45763.2
45763.2
45915
45915
45915
45915
45915
45915
46067
46067
46067
46067
46067
46067
46219.3
46219.3
46219.3
46219.3
46219.3
46219.3
46371.9
46371.9
46371.9
46371.9
46371.9
46371.9
46524.7
46524.7
46524.7
46524.7
46524.7
46524.7
46677.7
46677.7
46677.7
46677.7
46677.7
46677.7
46831
46831
46831
46831
46831
46831
46984.6
46984.6
46984.6
46984.6
46984.6
46984.6
47138.4
47138.4
47138.4
47138.4
47138.4
47138.4
47292.4
47292.4
47292.4
47292.4
47292.4
47292.4
47446.8
47446.7
47446.7
47446.7
47446.7
47446.8
47601.3
47601.3
47601.3
47601.3
47601.3
47601.3
47756.1
47756.1
47756.1
47756.1
47756.1
47756.1
47911.2
47911.2
47911.2
47911.2
47911.2
47911.2
48066.5
48066.5
48066.5
48066.5
48066.5
48066.5
48222.1
48222.1
48222.1