/*--------------------------------*- C++ -*----------------------------------*\
| =========                 |                                                 |
| \\      /  F ield         | OpenFOAM: The Open Source CFD Toolbox           |
|  \\    /   O peration     | Version:  2206                                  |
|   \\  /    A nd           | Website:  www.openfoam.com                      |
|    \\/     M anipulation  |                                                 |
\*---------------------------------------------------------------------------*/
FoamFile
{
    version     2.0;
    format      ascii;
    arch        "LSB;label=32;scalar=64";
    class       surfaceScalarField;
    location    "3";
    object      phi;
}
// * * * * * * * * * * * * * * * * * * * * * * * * * * * * * * * * * * * * * //

dimensions      [0 3 -1 0 0 0 0];

oriented        oriented;

internalField   nonuniform List<scalar> 
65994
(
3.37319e-19
-3.06882e-19
3.84042e-19
-3.90985e-20
6.33555e-21
3.81681e-19
-3.81881e-19
3.91122e-19
-3.67096e-19
-1.24906e-20
-3.67129e-19
9.76115e-19
-1.28532e-18
1.07187e-18
-1.35485e-19
-2.45013e-19
1.69529e-18
-1.53303e-18
1.6762e-18
-1.3565e-18
-1.91146e-19
-1.7235e-18
1.77613e-18
-3.05053e-18
1.97332e-18
-3.22793e-19
-3.58607e-19
4.03831e-18
-2.66311e-18
3.99056e-18
-2.38089e-18
-4.6556e-19
-4.10444e-18
2.67246e-18
-5.72768e-18
2.99894e-18
-6.52087e-19
-4.74025e-19
7.50652e-18
-3.92436e-18
7.43717e-18
-3.53159e-18
-8.60859e-19
-7.6358e-18
3.62072e-18
-9.32989e-18
4.06007e-18
-1.07388e-18
-6.29219e-19
1.22142e-17
-5.28868e-18
1.21134e-17
-4.75936e-18
-1.37679e-18
-1.23952e-17
4.55197e-18
-1.38839e-17
5.10306e-18
-1.62634e-18
-8.12508e-19
1.8128e-17
-6.68749e-18
1.79872e-17
-6.01558e-18
-2.04928e-18
-1.84107e-17
5.45886e-18
-1.93385e-17
6.11314e-18
-2.27721e-18
-9.86896e-19
2.52319e-17
-8.03456e-18
2.50379e-17
-7.22263e-18
-2.85899e-18
-2.56335e-17
6.32492e-18
-2.56755e-17
7.08312e-18
-3.04548e-18
-1.15731e-18
3.34606e-17
-9.334e-18
3.32044e-17
-8.38886e-18
-3.81188e-18
-3.40221e-17
7.18684e-18
-3.28405e-17
8.0427e-18
-3.88059e-18
-1.30417e-18
4.28288e-17
-1.05776e-17
4.24972e-17
-9.50423e-18
-4.8698e-18
-4.35263e-17
8.01888e-18
-4.08615e-17
8.97582e-18
-4.839e-18
-1.46758e-18
5.32706e-17
-1.18286e-17
5.28573e-17
-1.06284e-17
-6.07033e-18
-5.41547e-17
8.85898e-18
-4.97155e-17
9.91464e-18
-5.89053e-18
-1.62019e-18
6.48099e-17
-1.30638e-17
6.43044e-17
-1.17381e-17
-7.39331e-18
-6.5893e-17
9.69242e-18
-5.94215e-17
1.085e-17
-7.06086e-18
-1.7787e-18
7.74253e-17
-1.4308e-17
7.68219e-17
-1.28572e-17
-8.85342e-18
-7.87501e-17
1.05379e-17
-6.99529e-17
1.17931e-17
-8.31066e-18
-1.92687e-18
9.11517e-17
-1.55389e-17
9.04391e-17
-1.39622e-17
-1.04262e-17
-9.27124e-17
1.13709e-17
-8.13362e-17
1.27282e-17
-9.6805e-18
-2.08411e-18
1.05952e-16
-1.67809e-17
1.05125e-16
-1.50798e-17
-1.21365e-17
-1.07792e-16
1.22068e-17
-9.3551e-17
1.36627e-17
-1.11462e-17
-2.23494e-18
1.21841e-16
-1.80095e-17
1.2089e-16
-1.61842e-17
-1.397e-17
-1.23977e-16
1.30336e-17
-1.06612e-16
1.45903e-17
-1.27254e-17
-2.40575e-18
1.38806e-16
-1.92639e-17
1.37721e-16
-1.73083e-17
-1.5947e-17
-1.41285e-16
1.39089e-17
-1.20488e-16
1.55666e-17
-1.4354e-17
-2.51908e-18
1.56928e-16
-2.04673e-17
1.55702e-16
-1.83935e-17
-1.79945e-17
-1.59678e-16
1.47372e-17
-1.35221e-16
1.64961e-17
-1.61072e-17
-2.69166e-18
1.76121e-16
-2.17289e-17
1.74745e-16
-1.9525e-17
-2.01929e-17
-1.79203e-16
1.55754e-17
-1.50785e-16
1.7433e-17
-1.79537e-17
-2.84227e-18
1.96408e-16
-2.2959e-17
1.94872e-16
-2.06306e-17
-2.2513e-17
-1.99834e-16
1.641e-17
-1.67198e-16
1.83696e-17
-1.99157e-17
-2.99953e-18
2.17774e-16
-2.42018e-17
2.16072e-16
-2.17483e-17
-2.4968e-17
-2.21582e-16
1.72569e-17
-1.84441e-16
1.93151e-17
-2.19608e-17
-3.14873e-18
2.40251e-16
-2.5437e-17
2.38373e-16
-2.28573e-17
-2.75381e-17
-2.44439e-16
1.80948e-17
-2.02539e-16
2.02546e-17
-2.41231e-17
-3.30805e-18
2.63811e-16
-2.66868e-17
2.6175e-16
-2.39811e-17
-3.02452e-17
-2.6842e-16
1.89392e-17
-2.21476e-16
2.11988e-17
-2.63814e-17
-3.46148e-18
2.88473e-16
-2.79293e-17
2.86218e-16
-2.50973e-17
-3.30764e-17
-2.93517e-16
1.97776e-17
-2.41262e-16
2.21388e-17
-2.87498e-17
-3.61867e-18
3.14223e-16
-2.91748e-17
3.11768e-16
-2.62168e-17
-3.60396e-17
-3.19734e-16
2.06259e-17
-2.61877e-16
2.3086e-17
-3.11988e-17
-3.7659e-18
3.41086e-16
-3.04078e-17
3.3842e-16
-2.73241e-17
-3.91151e-17
-3.47058e-16
2.14641e-17
-2.83342e-16
2.40256e-17
-3.37609e-17
-3.92399e-18
3.69035e-16
-3.16551e-17
3.66151e-16
-2.84453e-17
-4.23249e-17
-3.75503e-16
2.23085e-17
-3.05647e-16
2.497e-17
-3.642e-17
-4.07759e-18
3.98085e-16
-3.28981e-17
3.94974e-16
-2.95621e-17
-4.56593e-17
-4.05066e-16
2.31492e-17
-3.28802e-16
2.59121e-17
-3.91883e-17
-4.23412e-18
4.28226e-16
-3.41449e-17
4.2488e-16
-3.06829e-17
-4.91251e-17
-4.35748e-16
2.39949e-17
-3.52793e-16
2.68571e-17
-4.20473e-17
-4.38645e-18
4.59473e-16
-3.53855e-17
4.55882e-16
-3.1797e-17
-5.27114e-17
-4.67546e-16
2.48351e-17
-3.77634e-16
2.77988e-17
-4.50161e-17
-4.54244e-18
4.9181e-16
-3.6631e-17
4.87966e-16
-3.29168e-17
-5.64292e-17
-5.00462e-16
2.56772e-17
-4.03313e-16
2.87408e-17
-4.80827e-17
-4.69591e-18
5.25243e-16
-3.78714e-17
5.21138e-16
-3.40313e-17
-6.02718e-17
-5.34494e-16
2.65149e-17
-4.29836e-16
2.96796e-17
-5.12547e-17
-4.85149e-18
5.59766e-16
-3.91123e-17
5.55392e-16
-3.51464e-17
-6.42434e-17
-5.6964e-16
2.7361e-17
-4.57188e-16
3.06247e-17
-5.451e-17
-4.99844e-18
5.95399e-16
-4.03432e-17
5.90745e-16
-3.6252e-17
-6.83279e-17
-6.05892e-16
2.81987e-17
-4.85387e-16
3.15637e-17
-5.78745e-17
-5.1549e-18
6.32118e-16
-4.15864e-17
6.27177e-16
-3.73695e-17
-7.25442e-17
-6.43262e-16
2.90411e-17
-5.14425e-16
3.2506e-17
-6.13367e-17
-5.30838e-18
6.69935e-16
-4.28271e-17
6.64698e-16
-3.84842e-17
-7.68851e-17
-6.81746e-16
2.98818e-17
-5.4431e-16
3.3448e-17
-6.49057e-17
-5.46353e-18
7.08844e-16
-4.40711e-17
7.03303e-16
-3.96026e-17
-8.13556e-17
-7.21348e-16
3.07264e-17
-5.75033e-16
3.43922e-17
-6.85679e-17
-5.61653e-18
7.48856e-16
-4.53123e-17
7.43002e-16
-4.07173e-17
-8.59481e-17
-7.62066e-16
3.15677e-17
-6.06603e-16
3.53346e-17
-7.23376e-17
-5.77229e-18
7.8996e-16
-4.6558e-17
7.83786e-16
-4.18371e-17
-9.06709e-17
-8.03903e-16
3.24111e-17
-6.39015e-16
3.62782e-17
-7.6206e-17
-5.92622e-18
8.32164e-16
-4.78008e-17
8.25659e-16
-4.29538e-17
-9.5519e-17
-8.46857e-16
3.32515e-17
-6.72272e-16
3.72198e-17
-8.01793e-17
-6.08105e-18
8.75459e-16
-4.90435e-17
8.68617e-16
-4.40707e-17
-1.00495e-16
-8.90927e-16
3.4096e-17
-7.06363e-16
3.81635e-17
-8.42421e-17
-6.23234e-18
9.1986e-16
-5.02809e-17
9.1267e-16
-4.5182e-17
-1.05591e-16
-9.36109e-16
3.49361e-17
-7.41301e-16
3.91048e-17
-8.84131e-17
-6.38825e-18
9.65351e-16
-5.15257e-17
9.57805e-16
-4.6301e-17
-1.10817e-16
-9.8241e-16
3.57797e-17
-7.77081e-16
4.00486e-17
-9.26828e-17
-6.54226e-18
1.01194e-15
-5.27689e-17
1.00403e-15
-4.74179e-17
-1.16169e-16
-1.02983e-15
3.66207e-17
-8.13708e-16
4.09908e-17
-9.70587e-17
-6.69776e-18
1.05962e-15
-5.40136e-17
1.05134e-15
-4.85368e-17
-1.2165e-16
-1.07837e-15
3.74646e-17
-8.51172e-16
4.1934e-17
-1.01528e-16
-6.85064e-18
1.10841e-15
-5.52537e-17
1.09975e-15
-4.96505e-17
-1.27253e-16
-1.12802e-15
3.8304e-17
-8.89481e-16
4.28749e-17
-1.06105e-16
-7.00523e-18
1.15828e-15
-5.64957e-17
1.14923e-15
-5.07673e-17
-1.32986e-16
-1.17878e-15
3.91435e-17
-9.28629e-16
4.3814e-17
-1.1078e-16
-7.15815e-18
1.20925e-15
-5.77323e-17
1.1998e-15
-5.18785e-17
-1.38843e-16
-1.23066e-15
3.9979e-17
-9.68619e-16
4.47503e-17
-1.1556e-16
-7.31674e-18
1.26131e-15
-5.89754e-17
1.25145e-15
-5.29947e-17
-1.44832e-16
-1.28366e-15
4.08305e-17
-1.00944e-15
4.57014e-17
-1.2042e-16
-7.45743e-18
1.31448e-15
-6.02018e-17
1.3042e-15
-5.40974e-17
-1.50927e-16
-1.33775e-15
4.16666e-17
-1.0511e-15
4.66385e-17
-1.25391e-16
-7.61691e-18
1.36874e-15
-6.14481e-17
1.35804e-15
-5.5217e-17
-1.57157e-16
-1.39297e-15
4.25072e-17
-1.09361e-15
4.75788e-17
-1.30459e-16
-7.77001e-18
1.42409e-15
-6.2686e-17
1.41296e-15
-5.63294e-17
-1.63511e-16
-1.4493e-15
4.33469e-17
-1.13696e-15
4.85199e-17
-1.35634e-16
-7.92476e-18
1.48053e-15
-6.39283e-17
1.46896e-15
-5.74462e-17
-1.69994e-16
-1.50675e-15
4.41907e-17
-1.18114e-15
4.94631e-17
-1.40902e-16
-8.07776e-18
1.53808e-15
-6.51687e-17
1.52605e-15
-5.85602e-17
-1.76599e-16
-1.56531e-15
4.50318e-17
-1.22618e-15
5.04053e-17
-1.46277e-16
-8.23315e-18
1.59671e-15
-6.64134e-17
1.58423e-15
-5.96791e-17
-1.83335e-16
-1.62499e-15
4.58748e-17
-1.27205e-15
5.13486e-17
-1.51751e-16
-8.38717e-18
1.65645e-15
-6.7656e-17
1.6435e-15
-6.07957e-17
-1.90195e-16
-1.68578e-15
4.67157e-17
-1.31877e-15
5.22905e-17
-1.57329e-16
-8.54169e-18
1.71728e-15
-6.88985e-17
1.70385e-15
-6.19124e-17
-1.97184e-16
-1.74769e-15
4.75589e-17
-1.36633e-15
5.32331e-17
-1.63001e-16
-8.6944e-18
1.77921e-15
-7.01377e-17
1.7653e-15
-6.30253e-17
-2.04294e-16
-1.81072e-15
4.83999e-17
-1.41473e-15
5.41752e-17
-1.68777e-16
-8.84887e-18
1.84223e-15
-7.13803e-17
1.82783e-15
-6.41423e-17
-2.11533e-16
-1.87486e-15
4.92427e-17
-1.46397e-15
5.51182e-17
-1.74652e-16
-9.00294e-18
1.90635e-15
-7.26228e-17
1.89145e-15
-6.52587e-17
-2.18897e-16
-1.94012e-15
5.00847e-17
-1.51405e-15
5.60612e-17
-1.80631e-16
-9.15714e-18
1.97157e-15
-7.38658e-17
1.95616e-15
-6.63759e-17
-2.26388e-16
-2.0065e-15
5.09275e-17
-1.56498e-15
5.70039e-17
-1.86707e-16
-9.31126e-18
2.03788e-15
-7.51079e-17
2.02195e-15
-6.74916e-17
-2.34004e-16
-2.07399e-15
5.17693e-17
-1.61675e-15
5.79467e-17
-1.92886e-16
-9.4652e-18
2.10529e-15
-7.63502e-17
2.08884e-15
-6.86084e-17
-2.41747e-16
-2.1426e-15
5.26111e-17
-1.66936e-15
5.88887e-17
-1.99165e-16
-9.61916e-18
2.1738e-15
-7.75915e-17
2.15681e-15
-6.97237e-17
-2.49616e-16
-2.21232e-15
5.34514e-17
-1.72282e-15
5.98298e-17
-2.05545e-16
-9.77301e-18
2.2434e-15
-7.88318e-17
2.22587e-15
-7.08384e-17
-2.57611e-16
-2.28316e-15
5.42931e-17
-1.77711e-15
6.07709e-17
-2.12022e-16
-9.92611e-18
2.3141e-15
-8.00703e-17
2.29601e-15
-7.19508e-17
-2.65729e-16
-2.35511e-15
5.51337e-17
-1.83224e-15
6.17125e-17
-2.18601e-16
-1.00799e-17
2.38589e-15
-8.1311e-17
2.36724e-15
-7.3066e-17
-2.73974e-16
-2.42817e-15
5.59756e-17
-1.88822e-15
6.26546e-17
-2.25279e-16
-1.02339e-17
2.45878e-15
-8.25526e-17
2.43956e-15
-7.41815e-17
-2.82345e-16
-2.50236e-15
5.68177e-17
-1.94504e-15
6.35975e-17
-2.3206e-16
-1.03875e-17
2.53277e-15
-8.37944e-17
2.51297e-15
-7.52977e-17
-2.90843e-16
-2.57765e-15
5.76599e-17
-2.0027e-15
6.45398e-17
-2.3894e-16
-1.0542e-17
2.60785e-15
-8.50366e-17
2.58746e-15
-7.64137e-17
-2.99465e-16
-2.65407e-15
5.85022e-17
-2.0612e-15
6.54829e-17
-2.45921e-16
-1.06957e-17
2.68403e-15
-8.62788e-17
2.66305e-15
-7.75301e-17
-3.08214e-16
-2.7316e-15
5.93445e-17
-2.12055e-15
6.64256e-17
-2.53003e-16
-1.08498e-17
2.7613e-15
-8.7521e-17
2.73972e-15
-7.86463e-17
-3.17089e-16
-2.81024e-15
6.0186e-17
-2.18073e-15
6.73679e-17
-2.60185e-16
-1.10034e-17
2.83967e-15
-8.87622e-17
2.81747e-15
-7.97619e-17
-3.26091e-16
-2.89001e-15
6.10278e-17
-2.24176e-15
6.83094e-17
-2.67466e-16
-1.11575e-17
2.91914e-15
-9.00031e-17
2.89632e-15
-8.08765e-17
-3.35217e-16
-2.97088e-15
6.18695e-17
-2.30363e-15
6.9252e-17
-2.74849e-16
-1.13114e-17
2.9997e-15
-9.1245e-17
2.97625e-15
-8.19927e-17
-3.44469e-16
-3.05288e-15
6.27119e-17
-2.36634e-15
7.01948e-17
-2.82332e-16
-1.14655e-17
3.08136e-15
-9.24874e-17
3.05728e-15
-8.3109e-17
-3.53848e-16
-3.13598e-15
6.35539e-17
-2.4299e-15
7.11376e-17
-2.89917e-16
-1.16194e-17
3.16412e-15
-9.37297e-17
3.13938e-15
-8.42255e-17
-3.63353e-16
-3.22021e-15
6.43962e-17
-2.49429e-15
7.20798e-17
-2.976e-16
-1.17736e-17
3.24797e-15
-9.49714e-17
3.22258e-15
-8.5341e-17
-3.72983e-16
-3.30555e-15
6.52377e-17
-2.55953e-15
7.30222e-17
-3.05386e-16
-1.19273e-17
3.33292e-15
-9.6213e-17
3.30687e-15
-8.64571e-17
-3.8274e-16
-3.39201e-15
6.60788e-17
-2.62561e-15
7.39635e-17
-3.13272e-16
-1.20811e-17
3.41896e-15
-9.74532e-17
3.39224e-15
-8.75715e-17
-3.92623e-16
-3.47958e-15
6.69182e-17
-2.69253e-15
7.49037e-17
-3.2126e-16
-1.22356e-17
3.5061e-15
-9.86935e-17
3.47869e-15
-8.8686e-17
-4.02633e-16
-3.56827e-15
6.7761e-17
-2.76029e-15
7.58457e-17
-3.29342e-16
-1.23869e-17
3.59434e-15
-9.99299e-17
3.56624e-15
-8.97966e-17
-4.12763e-16
-3.65806e-15
6.86008e-17
-2.82889e-15
7.67865e-17
-3.37527e-16
-1.25416e-17
3.68366e-15
-1.01171e-16
3.65487e-15
-9.09124e-17
-4.23021e-16
-3.74897e-15
6.94424e-17
-2.89833e-15
7.77283e-17
-3.45812e-16
-1.26954e-17
3.77409e-15
-1.02412e-16
3.74459e-15
-9.20274e-17
-4.33405e-16
-3.841e-15
7.0284e-17
-2.96862e-15
7.86708e-17
-3.54199e-16
-1.28493e-17
3.86561e-15
-1.03654e-16
3.83539e-15
-9.31437e-17
-4.43916e-16
-3.93415e-15
7.11265e-17
-3.03974e-15
7.96133e-17
-3.62685e-16
-1.30034e-17
3.95823e-15
-1.04896e-16
3.92729e-15
-9.42593e-17
-4.54552e-16
-4.0284e-15
7.19684e-17
-3.11171e-15
8.0556e-17
-3.71273e-16
-1.31576e-17
4.05194e-15
-1.06139e-16
4.02027e-15
-9.53762e-17
-4.65315e-16
-4.12378e-15
7.28109e-17
-3.18452e-15
8.14988e-17
-3.79961e-16
-1.33116e-17
4.14675e-15
-1.07381e-16
4.11434e-15
-9.64924e-17
-4.76204e-16
-4.22027e-15
7.36523e-17
-3.25818e-15
8.2441e-17
-3.88751e-16
-1.34655e-17
4.24265e-15
-1.08622e-16
4.20949e-15
-9.76082e-17
-4.87219e-16
-4.31788e-15
7.44944e-17
-3.33267e-15
8.3383e-17
-3.97638e-16
-1.36192e-17
4.33966e-15
-1.09863e-16
4.30574e-15
-9.87225e-17
-4.98358e-16
-4.4166e-15
7.53359e-17
-3.408e-15
8.43252e-17
-4.06628e-16
-1.37733e-17
4.43776e-15
-1.11105e-16
4.40307e-15
-9.98389e-17
-5.09624e-16
-4.51644e-15
7.61784e-17
-3.48418e-15
8.52681e-17
-4.15718e-16
-1.39273e-17
4.53695e-15
-1.12347e-16
4.50149e-15
-1.00955e-16
-5.21017e-16
-4.6174e-15
7.70202e-17
-3.5612e-15
8.62107e-17
-4.2491e-16
-1.40815e-17
4.63724e-15
-1.1359e-16
4.60099e-15
-1.02072e-16
-5.32536e-16
-4.71947e-15
7.78628e-17
-3.63907e-15
8.71533e-17
-4.342e-16
-1.42354e-17
4.73863e-15
-1.14831e-16
4.70159e-15
-1.03187e-16
-5.4418e-16
-4.82266e-15
7.87043e-17
-3.71777e-15
8.80956e-17
-4.43592e-16
-1.43896e-17
4.84112e-15
-1.16074e-16
4.80327e-15
-1.04304e-16
-5.55951e-16
-4.92696e-15
7.95459e-17
-3.79732e-15
8.90375e-17
-4.53085e-16
-1.45432e-17
4.94469e-15
-1.17314e-16
4.90604e-15
-1.05419e-16
-5.67847e-16
-5.03238e-15
8.03857e-17
-3.87771e-15
8.99784e-17
-4.62681e-16
-1.46976e-17
5.04937e-15
-1.18555e-16
5.0099e-15
-1.06534e-16
-5.79871e-16
-5.13891e-15
8.12292e-17
-3.95893e-15
9.0921e-17
-4.72368e-16
-1.48485e-17
5.15514e-15
-1.19791e-16
5.11485e-15
-1.07644e-16
-5.92014e-16
-5.24656e-15
8.20689e-17
-4.041e-15
9.18618e-17
-4.8216e-16
-1.50039e-17
5.26201e-15
-1.21034e-16
5.22088e-15
-1.08761e-16
-6.04287e-16
-5.35532e-15
8.29114e-17
-4.12391e-15
9.28045e-17
-4.92052e-16
-1.51576e-17
5.36997e-15
-1.22276e-16
5.328e-15
-1.09877e-16
-6.16685e-16
-5.4652e-15
8.37526e-17
-4.20767e-15
9.37465e-17
-5.02048e-16
-1.53126e-17
5.47903e-15
-1.23519e-16
5.4362e-15
-1.10994e-16
-6.29211e-16
-5.57619e-15
8.45963e-17
-4.29226e-15
9.46902e-17
-5.1214e-16
-1.54657e-17
5.58919e-15
-1.2476e-16
5.5455e-15
-1.12109e-16
-6.41861e-16
-5.6883e-15
8.54374e-17
-4.3777e-15
9.56321e-17
-5.22337e-16
-1.56213e-17
5.70044e-15
-1.26005e-16
5.65588e-15
-1.13228e-16
-6.5464e-16
-5.80153e-15
8.62801e-17
-4.46398e-15
9.65751e-17
-5.32634e-16
-1.5775e-17
5.81279e-15
-1.27247e-16
5.76735e-15
-1.14344e-16
-6.67545e-16
-5.91587e-15
8.71202e-17
-4.55111e-15
9.75164e-17
-5.43035e-16
-1.59303e-17
5.92623e-15
-1.2849e-16
5.8799e-15
-1.15461e-16
-6.80578e-16
-6.03133e-15
8.79654e-17
-4.63907e-15
9.84607e-17
-5.53526e-16
-1.60808e-17
6.04077e-15
-1.29727e-16
5.99355e-15
-1.16572e-16
-6.93729e-16
-6.14791e-15
8.88051e-17
-4.72788e-15
9.94015e-17
-5.64126e-16
-1.62377e-17
6.15641e-15
-1.30973e-16
6.10829e-15
-1.17692e-16
-7.07012e-16
-6.2656e-15
8.96483e-17
-4.81753e-15
1.00345e-16
-5.74825e-16
-1.63916e-17
6.27314e-15
-1.32216e-16
6.22411e-15
-1.18809e-16
-7.20421e-16
-6.38441e-15
9.04885e-17
-4.90802e-15
1.01286e-16
-5.85631e-16
-1.6548e-17
6.39097e-15
-1.33461e-16
6.34101e-15
-1.19928e-16
-7.33961e-16
-6.50433e-15
9.13322e-17
-4.99936e-15
1.02229e-16
-5.9653e-16
-1.67003e-17
6.5099e-15
-1.347e-16
6.45901e-15
-1.2104e-16
-7.47621e-16
-6.62537e-15
9.21712e-17
-5.09154e-15
1.0317e-16
-6.07536e-16
-1.68551e-17
6.62991e-15
-1.35942e-16
6.57809e-15
-1.22157e-16
-7.61412e-16
-6.74753e-15
9.301e-17
-5.18455e-15
1.04108e-16
-6.18644e-16
-1.70069e-17
6.75102e-15
-1.37176e-16
6.69825e-15
-1.23268e-16
-7.75329e-16
-6.8708e-15
9.38363e-17
-5.27843e-15
1.05043e-16
-6.29876e-16
-1.71768e-17
6.87319e-15
-1.38435e-16
6.81947e-15
-1.24398e-16
-7.89398e-16
-6.9952e-15
9.47091e-17
-5.3731e-15
1.06001e-16
-6.41136e-16
-1.72929e-17
6.99654e-15
-1.39628e-16
6.94185e-15
-1.25469e-16
-8.03521e-16
-7.12067e-15
9.55366e-17
-5.46863e-15
1.06936e-16
-6.5253e-16
-1.74634e-17
7.12094e-15
-1.4089e-16
7.06528e-15
-1.26603e-16
-8.17802e-16
-7.24727e-15
9.63768e-17
-5.565e-15
1.07876e-16
-6.64021e-16
-1.76156e-17
7.24644e-15
-1.42127e-16
7.1898e-15
-1.27715e-16
-8.32207e-16
-7.37498e-15
9.72155e-17
-5.66221e-15
1.08817e-16
-6.75622e-16
-1.77719e-17
7.37303e-15
-1.43371e-16
7.3154e-15
-1.28834e-16
-8.46745e-16
-7.50382e-15
9.80602e-17
-5.76026e-15
1.0976e-16
-6.87315e-16
-1.79236e-17
7.50072e-15
-1.4461e-16
7.44209e-15
-1.29946e-16
-8.61403e-16
-7.63376e-15
9.89e-17
-5.85916e-15
1.10701e-16
-6.99117e-16
-1.80808e-17
7.62951e-15
-1.45856e-16
7.56987e-15
-1.31066e-16
-8.76193e-16
-7.76483e-15
9.97431e-17
-5.95891e-15
1.11645e-16
-7.11017e-16
-1.82344e-17
7.75939e-15
-1.47098e-16
7.69873e-15
-1.32183e-16
-8.91108e-16
-7.89701e-15
1.00583e-16
-6.05949e-15
1.12586e-16
-7.23023e-16
-1.83901e-17
7.89036e-15
-1.48342e-16
7.82868e-15
-1.333e-16
-9.06152e-16
-8.03031e-15
1.01428e-16
-6.16092e-15
1.1353e-16
-7.35119e-16
-1.85408e-17
8.02244e-15
-1.49579e-16
7.95973e-15
-1.34412e-16
-9.21315e-16
-8.16472e-15
1.02268e-16
-6.26318e-15
1.14471e-16
-7.47323e-16
-1.86969e-17
8.1556e-15
-1.50824e-16
8.09185e-15
-1.3553e-16
-9.36609e-16
-8.30026e-15
1.03111e-16
-6.36629e-15
1.15414e-16
-7.59625e-16
-1.88506e-17
8.28987e-15
-1.52066e-16
8.22507e-15
-1.36646e-16
-9.52028e-16
-8.4369e-15
1.03952e-16
-6.47025e-15
1.16356e-16
-7.72031e-16
-1.90058e-17
8.42523e-15
-1.5331e-16
8.35937e-15
-1.37764e-16
-9.67575e-16
-8.57467e-15
1.04796e-16
-6.57504e-15
1.173e-16
-7.84534e-16
-1.9159e-17
8.56169e-15
-1.54551e-16
8.49476e-15
-1.38879e-16
-9.83246e-16
-8.71354e-15
1.05637e-16
-6.68068e-15
1.18242e-16
-7.97142e-16
-1.93139e-17
8.69924e-15
-1.55794e-16
8.63124e-15
-1.39997e-16
-9.99045e-16
-8.85354e-15
1.06479e-16
-6.78716e-15
1.19184e-16
-8.09848e-16
-1.94676e-17
8.83789e-15
-1.57035e-16
8.76881e-15
-1.41112e-16
-1.01497e-15
-8.99465e-15
1.07319e-16
-6.89448e-15
1.20125e-16
-8.22658e-16
-1.96222e-17
8.97764e-15
-1.58277e-16
8.90746e-15
-1.42227e-16
-1.03102e-15
-9.13688e-15
1.08162e-16
-7.00264e-15
1.21067e-16
-8.3556e-16
-1.97733e-17
9.11848e-15
-1.59513e-16
9.0472e-15
-1.43338e-16
-1.04719e-15
-9.28022e-15
1.09002e-16
-7.11164e-15
1.22009e-16
-8.48567e-16
-1.99281e-17
9.26042e-15
-1.60755e-16
9.18803e-15
-1.44454e-16
-1.0635e-15
-9.42467e-15
1.09844e-16
-7.22149e-15
1.22951e-16
-8.61673e-16
-2.00819e-17
9.40345e-15
-1.61996e-16
9.32994e-15
-1.4557e-16
-1.07992e-15
-9.57024e-15
1.10686e-16
-7.33217e-15
1.23893e-16
-8.74881e-16
-2.02361e-17
9.54758e-15
-1.63239e-16
9.47295e-15
-1.46686e-16
-1.09647e-15
-9.71693e-15
1.11528e-16
-7.4437e-15
1.24836e-16
-8.88188e-16
-2.03899e-17
9.6928e-15
-1.6448e-16
9.61704e-15
-1.47802e-16
-1.11315e-15
-9.86473e-15
1.1237e-16
-7.55607e-15
1.25778e-16
-9.01597e-16
-2.05442e-17
9.83913e-15
-1.65723e-16
9.76222e-15
-1.48918e-16
-1.12996e-15
-1.00136e-14
1.13212e-16
-7.66929e-15
1.26721e-16
-9.15107e-16
-2.06982e-17
9.98654e-15
-1.66965e-16
9.90848e-15
-1.50034e-16
-1.14689e-15
-1.01637e-14
1.14053e-16
-7.78334e-15
1.27663e-16
-9.28718e-16
-2.08522e-17
1.01351e-14
-1.68206e-16
1.00558e-14
-1.5115e-16
-1.16395e-15
-1.03148e-14
1.14896e-16
-7.89823e-15
1.28605e-16
-9.42426e-16
-2.10057e-17
1.02847e-14
-1.69447e-16
1.02043e-14
-1.52265e-16
-1.18113e-15
-1.04671e-14
1.15737e-16
-8.01397e-15
1.29547e-16
-9.56237e-16
-2.11599e-17
1.04354e-14
-1.70689e-16
1.03538e-14
-1.53381e-16
-1.19844e-15
-1.06205e-14
1.16579e-16
-8.13055e-15
1.3049e-16
-9.70148e-16
-2.13139e-17
1.05872e-14
-1.71931e-16
1.05044e-14
-1.54497e-16
-1.21587e-15
-1.0775e-14
1.17421e-16
-8.24798e-15
1.31432e-16
-9.84161e-16
-2.1468e-17
1.07401e-14
-1.73173e-16
1.06561e-14
-1.55613e-16
-1.23343e-15
-1.09306e-14
1.18263e-16
-8.36624e-15
1.32374e-16
-9.98272e-16
-2.16219e-17
1.08941e-14
-1.74414e-16
1.08089e-14
-1.56728e-16
-1.25112e-15
-1.10873e-14
1.19105e-16
-8.48534e-15
1.33317e-16
-1.01249e-15
-2.17758e-17
1.10492e-14
-1.75656e-16
1.09628e-14
-1.57844e-16
-1.26893e-15
-1.12452e-14
1.19946e-16
-8.60529e-15
1.34258e-16
-1.0268e-15
-2.19296e-17
1.12054e-14
-1.76897e-16
1.11178e-14
-1.58959e-16
-1.28687e-15
-1.14041e-14
1.20786e-16
-8.72608e-15
1.35199e-16
-1.04121e-15
-2.20841e-17
1.13626e-14
-1.78138e-16
1.12738e-14
-1.60074e-16
-1.30493e-15
-1.15642e-14
1.21629e-16
-8.84771e-15
1.36141e-16
-1.05573e-15
-2.22359e-17
1.1521e-14
-1.79375e-16
1.1431e-14
-1.61186e-16
-1.32312e-15
-1.17254e-14
1.22469e-16
-8.97018e-15
1.37083e-16
-1.07034e-15
-2.23904e-17
1.16805e-14
-1.80617e-16
1.15892e-14
-1.62302e-16
-1.34144e-15
-1.18877e-14
1.23311e-16
-9.09349e-15
1.38025e-16
-1.08505e-15
-2.25443e-17
1.18411e-14
-1.81858e-16
1.17485e-14
-1.63417e-16
-1.35988e-15
-1.20511e-14
1.24153e-16
-9.21764e-15
1.38967e-16
-1.09987e-15
-2.26981e-17
1.20027e-14
-1.83099e-16
1.19089e-14
-1.64533e-16
-1.37844e-15
-1.22156e-14
1.24995e-16
-9.34264e-15
1.39909e-16
-1.11478e-15
-2.28522e-17
1.21655e-14
-1.84341e-16
1.20704e-14
-1.65649e-16
-1.39714e-15
-1.23813e-14
1.25837e-16
-9.46847e-15
1.40852e-16
-1.1298e-15
-2.30061e-17
1.23293e-14
-1.85583e-16
1.2233e-14
-1.66765e-16
-1.41595e-15
-1.2548e-14
1.26679e-16
-9.59515e-15
1.41794e-16
-1.14491e-15
-2.31601e-17
1.24943e-14
-1.86825e-16
1.23966e-14
-1.67881e-16
-1.4349e-15
-1.27159e-14
1.2752e-16
-9.72267e-15
1.42736e-16
-1.16013e-15
-2.33139e-17
1.26603e-14
-1.88066e-16
1.25614e-14
-1.68996e-16
-1.45397e-15
-1.28849e-14
1.28362e-16
-9.85103e-15
1.43678e-16
-1.17545e-15
-2.34681e-17
1.28275e-14
-1.89308e-16
1.27272e-14
-1.70111e-16
-1.47317e-15
-1.3055e-14
1.29204e-16
-9.98024e-15
1.44621e-16
-1.19086e-15
-2.36217e-17
1.29957e-14
-1.90549e-16
1.28941e-14
-1.71227e-16
-1.49249e-15
-1.32263e-14
1.30046e-16
-1.01103e-14
1.45563e-16
-1.20638e-15
-2.37757e-17
1.31651e-14
-1.91791e-16
1.30622e-14
-1.72343e-16
-1.51194e-15
-1.33986e-14
1.30888e-16
-1.02412e-14
1.46506e-16
-1.222e-15
-2.39294e-17
1.33355e-14
-1.93032e-16
1.32313e-14
-1.73459e-16
-1.53151e-15
-1.35721e-14
1.31729e-16
-1.03729e-14
1.47448e-16
-1.23772e-15
-2.40837e-17
1.3507e-14
-1.94274e-16
1.34015e-14
-1.74574e-16
-1.55121e-15
-1.37466e-14
1.32571e-16
-1.05055e-14
1.4839e-16
-1.25354e-15
-2.42373e-17
1.36797e-14
-1.95515e-16
1.35727e-14
-1.7569e-16
-1.57104e-15
-1.39223e-14
1.33413e-16
-1.06389e-14
1.49332e-16
-1.26946e-15
-2.43912e-17
1.38534e-14
-1.96757e-16
1.37451e-14
-1.76805e-16
-1.59099e-15
-1.40991e-14
1.34254e-16
-1.07731e-14
1.50274e-16
-1.28548e-15
-2.4545e-17
1.40282e-14
-1.97998e-16
1.39185e-14
-1.7792e-16
-1.61106e-15
-1.42771e-14
1.35096e-16
-1.09082e-14
1.51215e-16
-1.3016e-15
-2.4699e-17
1.42041e-14
-1.99238e-16
1.40931e-14
-1.79035e-16
-1.63127e-15
-1.44561e-14
1.35937e-16
-1.10442e-14
1.52158e-16
-1.31782e-15
-2.48527e-17
1.43811e-14
-2.00479e-16
1.42687e-14
-1.8015e-16
-1.6516e-15
-1.46362e-14
1.36779e-16
-1.1181e-14
1.531e-16
-1.33414e-15
-2.50067e-17
1.45592e-14
-2.01721e-16
1.44454e-14
-1.81266e-16
-1.67205e-15
-1.48175e-14
1.37621e-16
-1.13186e-14
1.54042e-16
-1.35056e-15
-2.51603e-17
1.47384e-14
-2.02962e-16
1.46232e-14
-1.82382e-16
-1.69263e-15
-1.49999e-14
1.38463e-16
-1.1457e-14
1.54984e-16
-1.36708e-15
-2.53146e-17
1.49187e-14
-2.04204e-16
1.48021e-14
-1.83497e-16
-1.71334e-15
-1.51834e-14
1.39305e-16
-1.15963e-14
1.55927e-16
-1.38371e-15
-2.54682e-17
1.51001e-14
-2.05446e-16
1.49821e-14
-1.84613e-16
-1.73417e-15
-1.5368e-14
1.40147e-16
-1.17365e-14
1.56869e-16
-1.40043e-15
-2.56223e-17
1.52826e-14
-2.06687e-16
1.51632e-14
-1.85729e-16
-1.75513e-15
-1.55537e-14
1.40988e-16
-1.18775e-14
1.57811e-16
-1.41725e-15
-2.57761e-17
1.54662e-14
-2.07928e-16
1.53453e-14
-1.86844e-16
-1.77621e-15
-1.57406e-14
1.4183e-16
-1.20193e-14
1.58753e-16
-1.43418e-15
-2.593e-17
1.56509e-14
-2.0917e-16
1.55285e-14
-1.87959e-16
-1.79742e-15
-1.59285e-14
1.42672e-16
-1.2162e-14
1.59696e-16
-1.4512e-15
-2.60839e-17
1.58367e-14
-2.10411e-16
1.57129e-14
-1.89075e-16
-1.81876e-15
-1.61176e-14
1.43514e-16
-1.23055e-14
1.60638e-16
-1.46832e-15
-2.6238e-17
1.60235e-14
-2.11653e-16
1.58983e-14
-1.90191e-16
-1.84022e-15
-1.63078e-14
1.44355e-16
-1.24499e-14
1.6158e-16
-1.48555e-15
-2.63919e-17
1.62115e-14
-2.12895e-16
1.60848e-14
-1.91307e-16
-1.86181e-15
-1.64991e-14
1.45197e-16
-1.2595e-14
1.62523e-16
-1.50288e-15
-2.65459e-17
1.64006e-14
-2.14136e-16
1.62724e-14
-1.92423e-16
-1.88352e-15
-1.66915e-14
1.46039e-16
-1.27411e-14
1.63465e-16
-1.5203e-15
-2.66996e-17
1.65907e-14
-2.15377e-16
1.64611e-14
-1.93538e-16
-1.90537e-15
-1.68851e-14
1.4688e-16
-1.2888e-14
1.64406e-16
-1.53783e-15
-2.68533e-17
1.6782e-14
-2.16618e-16
1.66508e-14
-1.94653e-16
-1.92733e-15
-1.70797e-14
1.4772e-16
-1.30357e-14
1.65347e-16
-1.55546e-15
-2.70084e-17
1.69744e-14
-2.17859e-16
1.68417e-14
-1.95768e-16
-1.94942e-15
-1.72755e-14
1.48563e-16
-1.31843e-14
1.6629e-16
-1.57318e-15
-2.71598e-17
1.71678e-14
-2.19098e-16
1.70336e-14
-1.96881e-16
-1.97164e-15
-1.74724e-14
1.49404e-16
-1.33337e-14
1.67231e-16
-1.59101e-15
-2.73148e-17
1.73624e-14
-2.2034e-16
1.72266e-14
-1.97997e-16
-1.99398e-15
-1.76704e-14
1.50245e-16
-1.34839e-14
1.68173e-16
-1.60894e-15
-2.74686e-17
1.7558e-14
-2.21581e-16
1.74207e-14
-1.99112e-16
-2.01645e-15
-1.78695e-14
1.51087e-16
-1.3635e-14
1.69115e-16
-1.62697e-15
-2.76224e-17
1.77547e-14
-2.22822e-16
1.76159e-14
-2.00228e-16
-2.03905e-15
-1.80697e-14
1.51929e-16
-1.37869e-14
1.70057e-16
-1.6451e-15
-2.77765e-17
1.79526e-14
-2.24064e-16
1.78122e-14
-2.01343e-16
-2.06177e-15
-1.8271e-14
1.52771e-16
-1.39397e-14
1.71e-16
-1.66332e-15
-2.79303e-17
1.81515e-14
-2.25305e-16
1.80096e-14
-2.02459e-16
-2.08461e-15
-1.84735e-14
1.53613e-16
-1.40933e-14
1.71942e-16
-1.68165e-15
-2.80844e-17
1.83515e-14
-2.26547e-16
1.82081e-14
-2.03575e-16
-2.10758e-15
-1.86771e-14
1.54454e-16
-1.42478e-14
1.72884e-16
-1.70009e-15
-2.82381e-17
1.85526e-14
-2.27788e-16
1.84076e-14
-2.0469e-16
-2.13068e-15
-1.88818e-14
1.55296e-16
-1.44031e-14
1.73826e-16
-1.71862e-15
-2.83923e-17
1.87549e-14
-2.2903e-16
1.86083e-14
-2.05806e-16
-2.15391e-15
-1.90876e-14
1.56138e-16
-1.45592e-14
1.74768e-16
-1.73725e-15
-2.85459e-17
1.89582e-14
-2.30271e-16
1.881e-14
-2.06921e-16
-2.17726e-15
-1.92945e-14
1.5698e-16
-1.47162e-14
1.75711e-16
-1.75598e-15
-2.87e-17
1.91626e-14
-2.31513e-16
1.90128e-14
-2.08037e-16
-2.20073e-15
-1.95025e-14
1.57822e-16
-1.4874e-14
1.76653e-16
-1.77481e-15
-2.88536e-17
1.93681e-14
-2.32754e-16
1.92167e-14
-2.09153e-16
-2.22434e-15
-1.97117e-14
1.58663e-16
-1.50327e-14
1.77595e-16
-1.79374e-15
-2.90079e-17
1.95747e-14
-2.33996e-16
1.94217e-14
-2.10268e-16
-2.24806e-15
-1.9922e-14
1.59505e-16
-1.51922e-14
1.78538e-16
-1.81278e-15
-2.91614e-17
1.97824e-14
-2.35237e-16
1.96278e-14
-2.11384e-16
-2.27192e-15
-2.01333e-14
1.60347e-16
-1.53525e-14
1.7948e-16
-1.83191e-15
-2.93154e-17
1.99912e-14
-2.36479e-16
1.98349e-14
-2.12499e-16
-2.2959e-15
-2.03458e-14
1.61188e-16
-1.55137e-14
1.80422e-16
-1.85114e-15
-2.94692e-17
2.02011e-14
-2.3772e-16
2.00432e-14
-2.13615e-16
-2.32e-15
-2.05595e-14
1.6203e-16
-1.56757e-14
1.81363e-16
-1.87048e-15
-2.96235e-17
2.04121e-14
-2.38961e-16
2.02525e-14
-2.1473e-16
-2.34423e-15
-2.07742e-14
1.62871e-16
-1.58386e-14
1.82306e-16
-1.88991e-15
-2.9777e-17
2.06241e-14
-2.40202e-16
2.04629e-14
-2.15845e-16
-2.36859e-15
-2.099e-14
1.63713e-16
-1.60023e-14
1.83248e-16
-1.90945e-15
-2.99311e-17
2.08373e-14
-2.41443e-16
2.06744e-14
-2.16961e-16
-2.39307e-15
-2.1207e-14
1.64555e-16
-1.61669e-14
1.8419e-16
-1.92908e-15
-3.00845e-17
2.10516e-14
-2.42684e-16
2.0887e-14
-2.18076e-16
-2.41768e-15
-2.14251e-14
1.65396e-16
-1.63323e-14
1.85132e-16
-1.94882e-15
-3.02389e-17
2.1267e-14
-2.43926e-16
2.11007e-14
-2.19192e-16
-2.44242e-15
-2.16443e-14
1.66239e-16
-1.64985e-14
1.86075e-16
-1.96866e-15
-3.03923e-17
2.14834e-14
-2.45167e-16
2.13155e-14
-2.20307e-16
-2.46728e-15
-2.18646e-14
1.6708e-16
-1.66656e-14
1.87017e-16
-1.98859e-15
-3.05464e-17
2.1701e-14
-2.46409e-16
2.15314e-14
-2.21423e-16
-2.49226e-15
-2.2086e-14
1.67922e-16
-1.68335e-14
1.87959e-16
-2.00863e-15
-3.07e-17
2.19197e-14
-2.4765e-16
2.17483e-14
-2.22538e-16
-2.51737e-15
-2.23085e-14
1.68763e-16
-1.70023e-14
1.88901e-16
-2.02877e-15
-3.08544e-17
2.21394e-14
-2.48892e-16
2.19664e-14
-2.23654e-16
-2.54261e-15
-2.25322e-14
1.69605e-16
-1.71719e-14
1.89843e-16
-2.04901e-15
-3.10079e-17
2.23603e-14
-2.50133e-16
2.21855e-14
-2.24769e-16
-2.56798e-15
-2.2757e-14
1.70447e-16
-1.73423e-14
1.90785e-16
-2.06934e-15
-3.1162e-17
2.25822e-14
-2.51374e-16
2.24057e-14
-2.25885e-16
-2.59347e-15
-2.29828e-14
1.71289e-16
-1.75136e-14
1.91728e-16
-2.08978e-15
-3.13156e-17
2.28053e-14
-2.52616e-16
2.2627e-14
-2.27e-16
-2.61908e-15
-2.32098e-14
1.72131e-16
-1.76857e-14
1.9267e-16
-2.11032e-15
-3.14698e-17
2.30294e-14
-2.53857e-16
2.28494e-14
-2.28116e-16
-2.64482e-15
-2.3438e-14
1.72972e-16
-1.78587e-14
1.93612e-16
-2.13096e-15
-3.16233e-17
2.32546e-14
-2.55098e-16
2.30729e-14
-2.29231e-16
-2.67069e-15
-2.36672e-14
1.73814e-16
-1.80325e-14
1.94554e-16
-2.1517e-15
-3.17771e-17
2.3481e-14
-2.56339e-16
2.32974e-14
-2.30346e-16
-2.69668e-15
-2.38975e-14
1.74655e-16
-1.82072e-14
1.95495e-16
-2.17254e-15
-3.19317e-17
2.37084e-14
-2.57581e-16
2.35231e-14
-2.31461e-16
-2.7228e-15
-2.4129e-14
1.75497e-16
-1.83827e-14
1.96438e-16
-2.19348e-15
-3.20851e-17
2.39369e-14
-2.58822e-16
2.37498e-14
-2.32577e-16
-2.74905e-15
-2.43616e-14
1.76339e-16
-1.8559e-14
1.9738e-16
-2.21452e-15
-3.22393e-17
2.41665e-14
-2.60063e-16
2.39776e-14
-2.33693e-16
-2.77542e-15
-2.45953e-14
1.7718e-16
-1.87362e-14
1.98321e-16
-2.23567e-15
-3.23932e-17
2.43972e-14
-2.61304e-16
2.42065e-14
-2.34808e-16
-2.80192e-15
-2.48301e-14
1.78022e-16
-1.89142e-14