/*--------------------------------*- C++ -*----------------------------------*\
| =========                 |                                                 |
| \\      /  F ield         | OpenFOAM: The Open Source CFD Toolbox           |
|  \\    /   O peration     | Version:  2206                                  |
|   \\  /    A nd           | Website:  www.openfoam.com                      |
|    \\/     M anipulation  |                                                 |
\*---------------------------------------------------------------------------*/
FoamFile
{
    version     2.0;
    format      ascii;
    arch        "LSB;label=32;scalar=64";
    class       volScalarField;
    location    "530";
    object      p;
}
// * * * * * * * * * * * * * * * * * * * * * * * * * * * * * * * * * * * * * //

dimensions      [0 2 -2 0 0 0 0];

internalField   nonuniform List<scalar> 
100000
(
4.57945e-10
1.67224e-08
2.30997e-08
3.43049e-08
4.51293e-08
5.89213e-08
6.76727e-08
8.45092e-08
9.87622e-08
1.20442e-07
1.39953e-07
1.58936e-07
1.83001e-07
2.07558e-07
2.36987e-07
2.66517e-07
2.93526e-07
3.2781e-07
3.60327e-07
4.00213e-07
4.37473e-07
4.75321e-07
5.16967e-07
5.6088e-07
6.07565e-07
6.57551e-07
7.08742e-07
7.56755e-07
8.12418e-07
8.6635e-07
9.27318e-07
9.86399e-07
1.04488e-06
1.10889e-06
1.17292e-06
1.24256e-06
1.31148e-06
1.37884e-06
1.45255e-06
1.52559e-06
1.60481e-06
1.68284e-06
1.75972e-06
1.8426e-06
1.92511e-06
2.01356e-06
2.10101e-06
2.18715e-06
2.27944e-06
2.37122e-06
2.46908e-06
2.5658e-06
2.66136e-06
2.76292e-06
2.86412e-06
2.97124e-06
3.07741e-06
3.1822e-06
3.29324e-06
3.40364e-06
3.52029e-06
3.63558e-06
3.74998e-06
3.87007e-06
3.99019e-06
4.11575e-06
4.24092e-06
4.36405e-06
4.49424e-06
4.62281e-06
4.75881e-06
4.89203e-06
5.02606e-06
5.16376e-06
5.3039e-06
5.44667e-06
5.59292e-06
5.7402e-06
5.88449e-06
6.03634e-06
6.18651e-06
6.34374e-06
6.49902e-06
6.65379e-06
6.81407e-06
6.97437e-06
7.14032e-06
7.30549e-06
7.46918e-06
7.63918e-06
7.80854e-06
7.98409e-06
8.15842e-06
8.33163e-06
8.51087e-06
8.68969e-06
8.87452e-06
9.05826e-06
9.2408e-06
9.42941e-06
9.6176e-06
9.81176e-06
1.00049e-05
1.01967e-05
1.03948e-05
1.05922e-05
1.07959e-05
1.09982e-05
1.11997e-05
1.14068e-05
1.16139e-05
1.18265e-05
1.20387e-05
1.22489e-05
1.24661e-05
1.26818e-05
1.29048e-05
1.31251e-05
1.33462e-05
1.35709e-05
1.37981e-05
1.40279e-05
1.42612e-05
1.44955e-05
1.47269e-05
1.49658e-05
1.5203e-05
1.54473e-05
1.56897e-05
1.59315e-05
1.61788e-05
1.64262e-05
1.66792e-05
1.69314e-05
1.71822e-05
1.74393e-05
1.76957e-05
1.79583e-05
1.82197e-05
1.848e-05
1.87463e-05
1.90122e-05
1.92841e-05
1.95549e-05
1.98245e-05
2.01002e-05
2.03754e-05
2.06567e-05
2.09369e-05
2.12159e-05
2.15009e-05
2.17856e-05
2.20761e-05
2.23657e-05
2.2654e-05
2.29485e-05
2.32424e-05
2.35425e-05
2.38412e-05
2.41391e-05
2.44427e-05
2.47463e-05
2.50554e-05
2.5364e-05
2.56706e-05
2.59843e-05
2.62963e-05
2.66159e-05
2.69325e-05
2.72501e-05
2.75713e-05
2.78949e-05
2.82212e-05
2.8551e-05
2.88817e-05
2.92095e-05
2.95449e-05
2.98786e-05
3.02193e-05
3.05581e-05
3.08964e-05
3.12402e-05
3.1584e-05
3.19334e-05
3.22821e-05
3.26293e-05
3.29829e-05
3.33357e-05
3.36948e-05
3.40527e-05
3.44094e-05
3.47722e-05
3.51345e-05
3.55029e-05
3.58701e-05
3.62362e-05
3.66083e-05
3.69801e-05
3.73578e-05
3.77344e-05
3.81098e-05
3.84914e-05
3.88724e-05
3.92596e-05
3.96454e-05
4.00304e-05
4.04211e-05
4.08117e-05
4.12079e-05
4.16036e-05
4.19973e-05
4.23981e-05
4.27973e-05
4.32039e-05
4.36077e-05
4.40123e-05
4.44206e-05
4.48313e-05
4.52447e-05
4.56616e-05
4.60794e-05
4.64943e-05
4.69168e-05
4.73375e-05
4.77654e-05
4.81913e-05
4.86167e-05
4.90475e-05
4.94785e-05
4.9915e-05
5.03508e-05
5.07851e-05
5.12257e-05
5.16657e-05
5.21119e-05
5.25568e-05
5.30007e-05
5.34505e-05
5.39e-05
5.43554e-05
5.48098e-05
5.52629e-05
5.57222e-05
5.6181e-05
5.66459e-05
5.71095e-05
5.75721e-05
5.80407e-05
5.85089e-05
5.8983e-05
5.94562e-05
5.9928e-05
6.04061e-05
6.08835e-05
6.13672e-05
6.18495e-05
6.2331e-05
6.28181e-05
6.33052e-05
6.37979e-05
6.429e-05
6.47802e-05
6.52775e-05
6.57731e-05
6.62762e-05
6.67764e-05
6.72775e-05
6.77823e-05
6.82895e-05
6.87993e-05
6.93126e-05
6.98269e-05
7.03383e-05
7.08572e-05
7.13745e-05
7.18988e-05
7.24211e-05
7.2943e-05
7.34704e-05
7.39977e-05
7.45308e-05
7.5063e-05
7.55938e-05
7.61309e-05
7.66673e-05
7.721e-05
7.77514e-05
7.82917e-05
7.8838e-05
7.93839e-05
7.99359e-05
8.04867e-05
8.10363e-05
8.1592e-05
8.21473e-05
8.27086e-05
8.32688e-05
8.38278e-05
8.43929e-05
8.49575e-05
8.55283e-05
8.60977e-05
8.66662e-05
8.72405e-05
8.78147e-05
8.83944e-05
8.89737e-05
8.9551e-05
9.01354e-05
9.07181e-05
9.13083e-05
9.18956e-05
9.24838e-05
9.30757e-05
9.367e-05
9.42669e-05
9.48674e-05
9.54688e-05
9.60673e-05
9.66733e-05
9.72776e-05
9.78891e-05
9.84985e-05
9.91075e-05
9.97219e-05
0.000100336
0.000100957
0.000101576
0.000102194
0.000102818
0.000103442
0.000104071
0.0001047
0.000105327
0.000105961
0.000106594
0.000107233
0.000107871
0.000108507
0.00010915
0.000109793
0.000110441
0.000111088
0.000111734
0.000112387
0.000113038
0.000113696
0.000114353
0.000115008
0.00011567
0.000116331
0.000116998
0.000117664
0.000118329
0.000119
0.00011967
0.000120347
0.000121022
0.000121696
0.000122377
0.000123056
0.000123743
0.000124427
0.000125111
0.0001258
0.00012649
0.000127184
0.000127881
0.000128579
0.000129274
0.000129976
0.000130677
0.000131385
0.000132091
0.000132796
0.000133507
0.000134218
0.000134935
0.00013565
0.000136365
0.000137085
0.000137806
0.000138532
0.000139257
0.000139981
0.000140711
0.00014144
0.000142176
0.00014291
0.000143643
0.000144382
0.000145121
0.000145866
0.00014661
0.000147352
0.000148101
0.000148849
0.000149604
0.000150357
0.000151109
0.000151867
0.000152624
0.000153388
0.000154151
0.000154911
0.000155679
0.000156446
0.000157219
0.00015799
0.000158762
0.000159538
0.000160316
0.000161096
0.00016188
0.000162665
0.000163447
0.000164237
0.000165025
0.00016582
0.000166613
0.000167405
0.000168203
0.000169001
0.000169805
0.000170608
0.000171409
0.000172217
0.000173024
0.000173838
0.00017465
0.000175461
0.000176278
0.000177094
0.000177917
0.000178739
0.000179559
0.000180385
0.000181211
0.000182043
0.000182874
0.000183704
0.000184539
0.000185375
0.000186216
0.000187056
0.000187895
0.000188741
0.000189585
0.000190436
0.000191286
0.000192134
0.000192988
0.000193843
0.000194703
0.000195562
0.000196419
0.000197284
0.000198146
0.000199017
0.000199884
0.000200752
0.000201624
0.000202499
0.000203376
0.000204256
0.000205137
0.000206016
0.000206902
0.000207787
0.000208678
0.000209567
0.000210457
0.000211351
0.000212246
0.000213146
0.000214045
0.000214943
0.000215847
0.000216751
0.000217661
0.000218569
0.000219477
0.00022039
0.000221303
0.000222222
0.00022314
0.000224057
0.00022498
0.000225903
0.000226831
0.000227758
0.000228684
0.000229617
0.000230548
0.000231486
0.000232423
0.000233359
0.0002343
0.000235242
0.000236188
0.000237135
0.000238079
0.000239031
0.000239981
0.000240938
0.000241893
0.000242848
0.000243807
0.000244768
0.000245733
0.0002467
0.000247669
0.000248634
0.000249608
0.000250579
0.000251558
0.000252534
0.00025351
0.000254492
0.000255474
0.000256461
0.000257447
0.000258432
0.000259424
0.000260415
0.000261411
0.000262407
0.000263402
0.000264402
0.000265403
0.000266409
0.000267414
0.000268418
0.000269428
0.000270437
0.000271453
0.000272467
0.000273481
0.0002745
0.000275519
0.000276544
0.000277568
0.00027859
0.000279619
0.000280647
0.000281682
0.000282715
0.000283747
0.000284785
0.000285823
0.000286866
0.000287909
0.00028895
0.000289998
0.000291044
0.000292098
0.000293149
0.000294201
0.000295256
0.000296314
0.000297375
0.000298439
0.000299504
0.000300566
0.000301636
0.000302704
0.000303779
0.000304852
0.000305924
0.000307002
0.000308081
0.000309164
0.000310247
0.000311329
0.000312417
0.000313504
0.000314597
0.000315689
0.000316781
0.000317878
0.000318974
0.000320077
0.000321178
0.000322279
0.000323385
0.000324491
0.000325603
0.000326714
0.000327824
0.00032894
0.000330055
0.000331177
0.000332297
0.000333416
0.000334541
0.000335666
0.000336797
0.000337927
0.000339055
0.00034019
0.000341323
0.000342464
0.000343602
0.000344741
0.000345884
0.000347029
0.000348177
0.000349328
0.00035048
0.000351629
0.000352786
0.000353941
0.000355103
0.000356263
0.000357423
0.000358588
0.000359754
0.000360924
0.000362095
0.000363263
0.000364438
0.000365612
0.000366793
0.000367972
0.00036915
0.000370335
0.000371518
0.000372708
0.000373897
0.000375084
0.000376278
0.000377471
0.00037867
0.000379868
0.000381065
0.000382268
0.00038347
0.000384679
0.000385886
0.000387093
0.000388305
0.000389517
0.000390735
0.000391951
0.000393167
0.000394389
0.00039561
0.000396837
0.000398063
0.000399288
0.00040052
0.000401749
0.000402987
0.000404221
0.000405457
0.000406696
0.000407938
0.000409182
0.000410429
0.000411678
0.000412924
0.000414177
0.000415428
0.000416687
0.000417944
0.0004192
0.000420462
0.000421723
0.000422991
0.000424257
0.000425522
0.000426794
0.000428065
0.000429342
0.000430617
0.000431892
0.000433173
0.000434453
0.000435739
0.000437024
0.000438308
0.000439598
0.000440888
0.000442183
0.000443478
0.000444771
0.000446071
0.00044737
0.000448675
0.000449979
0.000451281
0.00045259
0.000453899
0.000455213
0.000456526
0.000457838
0.000459157
0.000460474
0.000461798
0.00046312
0.000464442
0.000465769
0.000467097
0.000468428
0.000469763
0.000471099
0.000472432
0.000473772
0.000475111
0.000476457
0.0004778
0.000479144
0.000480492
0.000481841
0.000483196
0.000484549
0.000485902
0.00048726
0.000488618
0.000489982
0.000491345
0.000492707
0.000494074
0.000495442
0.000496815
0.000498187
0.000499559
0.000500936
0.000502312
0.000503695
0.000505077
0.000506457
0.000507844
0.00050923
0.000510622
0.000512013
0.000513403
0.000514799
0.000516194
0.000517596
0.000518996
0.000520395
0.0005218
0.000523205
0.000524616
0.000526026
0.000527434
0.000528849
0.000530263
0.000531684
0.000533102
0.000534521
0.000535943
0.000537369
0.000538796
0.000540228
0.00054166
0.000543089
0.000544526
0.000545961
0.000547403
0.000548844
0.000550283
0.000551729
0.000553174
0.000554625
0.000556075
0.000557524
0.000558979
0.000560433
0.000561894
0.000563353
0.000564811
0.000566275
0.000567739
0.000569209
0.000570678
0.000572145
0.000573619
0.000575092
0.000576571
0.00057805
0.000579526
0.000581009
0.000582492
0.000583981
0.000585468
0.000586954
0.000588447
0.000589939
0.000591436
0.000592934
0.000594429
0.000595931
0.000597432
0.00059894
0.000600445
0.000601951
0.000603461
0.000604973
0.000606488
0.000608006
0.000609526
0.000611042
0.000612566
0.000614088
0.000615618
0.000617145
0.000618672
0.000620204
0.000621737
0.000623275
0.000624812
0.000626348
0.00062789
0.000629431
0.000630979
0.000632526
0.000634071
0.000635622
0.000637173
0.00063873
0.000640286
0.000641841
0.000643401
0.000644962
0.000646528
0.000648093
0.000649657
0.000651227
0.000652797
0.000654373
0.000655947
0.000657521
0.0006591
0.000660679
0.000662264
0.000663848
0.000665431
0.00066702
0.000668608
0.000670202
0.000671796
0.000673388
0.000674987
0.000676584
0.000678188
0.00067979
0.000681393
0.000682999
0.000684608
0.000686219
0.000687834
0.00068945
0.000691062
0.000692683
0.000694302
0.000695927
0.000697551
0.000699175
0.000700803
0.000702432
0.000704067
0.000705701
0.000707333
0.000708971
0.000710609
0.000712254
0.000713896
0.000715538
0.000717186
0.000718834
0.000720487
0.000722139
0.00072379
0.000725448
0.000727104
0.000728767
0.000730429
0.000732089
0.000733756
0.000735422
0.000737094
0.000738765
0.000740435
0.000742111
0.000743787
0.000745468
0.000747149
0.000748828
0.000750513
0.000752198
0.000753889
0.000755578
0.000757268
0.000758961
0.000760657
0.000762356
0.000764058
0.00076576
0.00076746
0.000769168
0.000770874
0.000772587
0.000774298
0.000776008
0.000777724
0.00077944
0.000781162
0.000782883
0.000784602
0.000786328
0.000788053
0.000789784
0.000791514
0.000793243
0.000794978
0.000796712
0.000798453
0.000800192
0.000801931
0.000803675
0.000805419
0.000807169
0.000808918
0.000810665
0.000812419
0.000814172
0.000815931
0.00081769
0.000819447
0.00082121
0.000822972
0.000824741
0.000826508
0.000828275
0.000830047
0.000831819
0.000833597
0.000835374
0.00083715
0.000838932
0.000840713
0.000842501
0.000844286
0.000846072
0.000847862
0.000849654
0.000851449
0.000853248
0.000855047
0.000856844
0.000858648
0.00086045
0.000862259
0.000864067
0.000865874
0.000867686
0.000869499
0.000871317
0.000873134
0.00087495
0.000876772
0.000878594
0.000880421
0.000882248
0.000884073
0.000885905
0.000887736
0.000889573
0.000891409
0.000893243
0.000895084
0.000896925
0.000898771
0.000900616
0.00090246
0.00090431
0.00090616
0.000908016
0.00090987
0.000911724
0.000913583
0.000915443
0.000917308
0.000919172
0.000921034
0.000922904
0.000924772
0.000926647
0.000928519
0.000930393
0.00093227
0.000934149
0.000936031
0.000937917
0.000939803
0.000941687
0.000943578
0.000945467
0.000947364
0.000949258
0.000951152
0.000953052
0.000954951
0.000956857
0.000958761
0.000960664
0.000962573
0.000964482
0.000966397
0.00096831
0.000970223
0.000972141
0.00097406
0.000975984
0.000977907
0.000979829
0.000981757
0.000983684
0.000985617
0.00098755
0.000989481
0.000991418
0.000993355
0.000995298
0.00099724
0.00099918
0.00100113
0.00100307
0.00100503
0.00100698
0.00100893
0.00101088
0.00101284
0.0010148
0.00101676
0.00101872
0.00102069
0.00102265
0.00102462
0.00102659
0.00102856
0.00103053
0.00103251
0.00103449
0.00103647
0.00103845
0.00104043
0.00104242
0.00104441
0.0010464
0.00104839
0.00105038
0.00105238
0.00105437
0.00105637
0.00105838
0.00106037
0.00106238
0.00106439
0.0010664
0.00106841
0.00107042
0.00107243
0.00107445
0.00107647
0.00107849
0.0010805
0.00108253
0.00108455
0.00108658
0.00108861
0.00109064
0.00109267
0.00109471
0.00109675
0.00109878
0.00110082
0.00110286
0.00110491
0.00110696
0.001109
0.00111105
0.0011131
0.00111515
0.00111721
0.00111927
0.00112133
0.00112339
0.00112545
0.00112751
0.00112958
0.00113165
0.00113372
0.0011358
0.00113787
0.00113995
0.00114203
0.0011441
0.00114619
0.00114827
0.00115036
0.00115245
0.00115453
0.00115663
0.00115872
0.00116082
0.00116291
0.00116501
0.00116711
0.00116921
0.00117132
0.00117343
0.00117553
0.00117765
0.00117976
0.00118187
0.00118399
0.0011861
0.00118823
0.00119035
0.00119247
0.0011946
0.00119672
0.00119885
0.00120098
0.00120312
0.00120525
0.00120739
0.00120953
0.00121167
0.00121381
0.00121595
0.0012181
0.00122025
0.00122239
0.00122455
0.0012267
0.00122886
0.00123101
0.00123317
0.00123533
0.0012375
0.00123967
0.00124183
0.001244
0.00124617
0.00124835
0.00125052
0.0012527
0.00125488
0.00125706
0.00125924
0.00126142
0.00126361
0.0012658
0.00126799
0.00127018
0.00127237
0.00127457
0.00127677
0.00127896
0.00128117
0.00128337
0.00128557
0.00128778
0.00128999
0.0012922
0.00129441
0.00129663
0.00129884
0.00130106
0.00130328
0.0013055
0.00130773
0.00130995
0.00131218
0.00131441
0.00131664
0.00131887
0.00132111
0.00132334
0.00132559
0.00132783
0.00133007
0.00133231
0.00133456
0.00133681
0.00133906
0.00134131
0.00134356
0.00134582
0.00134808
0.00135034
0.0013526
0.00135486
0.00135713
0.0013594
0.00136167
0.00136394
0.00136621
0.00136849
0.00137076
0.00137305
0.00137533
0.00137761
0.00137989
0.00138218
0.00138447
0.00138676
0.00138905
0.00139134
0.00139364
0.00139594
0.00139824
0.00140054
0.00140284
0.00140515
0.00140746
0.00140976
0.00141207
0.00141439
0.0014167
0.00141902
0.00142134
0.00142365
0.00142598
0.0014283
0.00143063
0.00143296
0.00143528
0.00143762
0.00143995
0.00144229
0.00144462
0.00144696
0.0014493
0.00145164
0.00145399
0.00145634
0.00145869
0.00146103
0.00146339
0.00146574
0.0014681
0.00147046
0.00147282
0.00147518
0.00147755
0.00147991
0.00148228
0.00148465
0.00148702
0.00148939
0.00149177
0.00149415
0.00149653
0.00149891
0.00150129
0.00150368
0.00150606
0.00150845
0.00151084
0.00151323
0.00151563
0.00151803
0.00152042
0.00152282
0.00152522
0.00152763
0.00153003
0.00153244
0.00153485
0.00153726
0.00153967
0.00154209
0.0015445
0.00154692
0.00154934
0.00155177
0.00155419
0.00155661
0.00155904
0.00156147
0.0015639
0.00156634
0.00156878
0.00157121
0.00157365
0.00157609
0.00157854
0.00158099
0.00158343
0.00158588
0.00158833
0.00159079
0.00159324
0.0015957
0.00159816
0.00160062
0.00160308
0.00160555
0.00160801
0.00161048
0.00161295
0.00161542
0.0016179
0.00162037
0.00162285
0.00162533
0.00162781
0.00163029
0.00163278
0.00163526
0.00163775
0.00164025
0.00164274
0.00164523
0.00164773
0.00165022
0.00165273
0.00165523
0.00165773
0.00166024
0.00166274
0.00166525
0.00166777
0.00167028
0.00167279
0.00167531
0.00167783
0.00168035
0.00168287
0.00168539
0.00168792
0.00169045
0.00169298
0.00169552
0.00169805
0.00170059
0.00170312
0.00170567
0.00170821
0.00171075
0.0017133
0.00171584
0.0017184
0.00172095
0.0017235
0.00172605
0.00172861
0.00173117
0.00173373
0.00173629
0.00173886
0.00174142
0.001744
0.00174657
0.00174913
0.00175171
0.00175428
0.00175687
0.00175944
0.00176202
0.00176461
0.00176719
0.00176978
0.00177237
0.00177496
0.00177755
0.00178015
0.00178275
0.00178534
0.00178794
0.00179054
0.00179315
0.00179576
0.00179836
0.00180097
0.00180358
0.0018062
0.00180881
0.00181143
0.00181405
0.00181667
0.0018193
0.00182192
0.00182455
0.00182718
0.00182981
0.00183244
0.00183508
0.00183772
0.00184035
0.00184299
0.00184564
0.00184828
0.00185093
0.00185358
0.00185622
0.00185888
0.00186153
0.00186419
0.00186684
0.0018695
0.00187216
0.00187482
0.00187749
0.00188016
0.00188282
0.0018855
0.00188817
0.00189084
0.00189352
0.0018962
0.00189888
0.00190156
0.00190424
0.00190693
0.00190961
0.0019123
0.00191499
0.00191769
0.00192038
0.00192308
0.00192578
0.00192848
0.00193118
0.00193389
0.00193659
0.0019393
0.00194201
0.00194472
0.00194744
0.00195015
0.00195287
0.00195559
0.00195831
0.00196104
0.00196376
0.00196649
0.00196922
0.00197195
0.00197469
0.00197742
0.00198015
0.00198289
0.00198563
0.00198838
0.00199112
0.00199387
0.00199662
0.00199937
0.00200212
0.00200487
0.00200763
0.00201039
0.00201314
0.00201591
0.00201867
0.00202143
0.0020242
0.00202697
0.00202974
0.00203252
0.00203529
0.00203806
0.00204084
0.00204362
0.00204641
0.00204919
0.00205197
0.00205476
0.00205755
0.00206034
0.00206314
0.00206593
0.00206873
0.00207153
0.00207433
0.00207714
0.00207994
0.00208275
0.00208555
0.00208837
0.00209118
0.00209399
0.00209681
0.00209963
0.00210245
0.00210527
0.00210809
0.00211092
0.00211375
0.00211658
0.00211941
0.00212224
0.00212508
0.00212791
0.00213076
0.0021336
0.00213644
0.00213928
0.00214213
0.00214498
0.00214783
0.00215068
0.00215353
0.00215639
0.00215925
0.00216211
0.00216497
0.00216783
0.0021707
0.00217357
0.00217644
0.0021793
0.00218218
0.00218505
0.00218793
0.00219081
0.00219369
0.00219657
0.00219945
0.00220234
0.00220523
0.00220812
0.00221101
0.0022139
0.0022168
0.0022197
0.0022226
0.0022255
0.0022284
0.00223131
0.00223422
0.00223713
0.00224004
0.00224295
0.00224586
0.00224878
0.0022517
0.00225462
0.00225754
0.00226047
0.0022634
0.00226632
0.00226925
0.00227218
0.00227512
0.00227805
0.00228099
0.00228393
0.00228687
0.00228981
0.00229276
0.00229571
0.00229865
0.0023016
0.00230456
0.00230751
0.00231047
0.00231342
0.00231639
0.00231935
0.00232231
0.00232528
0.00232824
0.00233121
0.00233418
0.00233716
0.00234013
0.00234311
0.00234609
0.00234907
0.00235205
0.00235504
0.00235802
0.00236101
0.002364
0.00236699
0.00236999
0.00237298
0.00237598
0.00237898
0.00238198
0.00238499
0.00238799
0.002391
0.00239401
0.00239702
0.00240004
0.00240305
0.00240607
0.00240909
0.00241211
0.00241513
0.00241816
0.00242118
0.00242421
0.00242724
0.00243027
0.00243331
0.00243634
0.00243938
0.00244242
0.00244546
0.0024485
0.00245155
0.00245459
0.00245764
0.0024607
0.00246375
0.0024668
0.00246986
0.00247291
0.00247598
0.00247904
0.0024821
0.00248517
0.00248823
0.00249131
0.00249438
0.00249745
0.00250052
0.0025036
0.00250668
0.00250976
0.00251285
0.00251593
0.00251902
0.00252211
0.0025252
0.00252829
0.00253139
0.00253448
0.00253758
0.00254068
0.00254379
0.00254689
0.00254999
0.0025531
0.00255621
0.00255933
0.00256244
0.00256555
0.00256867
0.00257179
0.00257491
0.00257803
0.00258116
0.00258428
0.00258742
0.00259055
0.00259367
0.00259681
0.00259994
0.00260309
0.00260623
0.00260936
0.00261251
0.00261565
0.0026188
0.00262195
0.0026251
0.00262825
0.00263141
0.00263457
0.00263773
0.00264088
0.00264405
0.00264721
0.00265038
0.00265355
0.00265671
0.00265988
0.00266306
0.00266624
0.00266942
0.0026726
0.00267577
0.00267896
0.00268214
0.00268533
0.00268852
0.00269171
0.00269491
0.0026981
0.0027013
0.0027045
0.0027077
0.0027109
0.0027141
0.00271731
0.00272052
0.00272373
0.00272694
0.00273015
0.00273337
0.00273659
0.00273981
0.00274303
0.00274625
0.00274948
0.00275271
0.00275593
0.00275916
0.00276239
0.00276563
0.00276887
0.0027721
0.00277534
0.00277858
0.00278183
0.00278508
0.00278832
0.00279157
0.00279482
0.00279808
0.00280133
0.00280459
0.00280785
0.00281111
0.00281437
0.00281764
0.00282091
0.00282417
0.00282744
0.00283071
0.00283399
0.00283727
0.00284054
0.00284383
0.00284711
0.00285039
0.00285368
0.00285696
0.00286025
0.00286354
0.00286684
0.00287014
0.00287343
0.00287673
0.00288003
0.00288334
0.00288664
0.00288994
0.00289325
0.00289656
0.00289988
0.00290319
0.0029065
0.00290982
0.00291314
0.00291647
0.00291979
0.00292311
0.00292644
0.00292977
0.0029331
0.00293643
0.00293977
0.0029431
0.00294644
0.00294978
0.00295313
0.00295647
0.00295981
0.00296316
0.00296651
0.00296986
0.00297322
0.00297657
0.00297993
0.00298329
0.00298665
0.00299002
0.00299338
0.00299675
0.00300011
0.00300349
0.00300686
0.00301023
0.00301361
0.00301699
0.00302037
0.00302375
0.00302714
0.00303052
0.00303391
0.0030373
0.00304069
0.00304408
0.00304748
0.00305088
0.00305428
0.00305768
0.00306108
0.00306449
0.00306789
0.0030713
0.00307471
0.00307812
0.00308154
0.00308495
0.00308837
0.00309179
0.00309521
0.00309864
0.00310206
0.00310549
0.00310892
0.00311235
0.00311578
0.00311922
0.00312266
0.0031261
0.00312953
0.00313298
0.00313642
0.00313987
0.00314332
0.00314677
0.00315022
0.00315368
0.00315713
0.00316059
0.00316405
0.00316751
0.00317098
0.00317444
0.00317791
0.00318138
0.00318485
0.00318832
0.0031918
0.00319528
0.00319876
0.00320223
0.00320572
0.0032092
0.00321269
0.00321618
0.00321966
0.00322316
0.00322665
0.00323015
0.00323365
0.00323714
0.00324065
0.00324415
0.00324766
0.00325116
0.00325467
0.00325818
0.00326169
0.00326521
0.00326872
0.00327224
0.00327576
0.00327928
0.00328281
0.00328633
0.00328986
0.00329339
0.00329692
0.00330046
0.00330399
0.00330753
0.00331106
0.0033146
0.00331815
0.0033217
0.00332524
0.00332879
0.00333234
0.00333589
0.00333945
0.00334301
0.00334656
0.00335012
0.00335369
0.00335725
0.00336082
0.00336438
0.00336795
0.00337152
0.0033751
0.00337868
0.00338225
0.00338583
0.00338941
0.003393
0.00339658
0.00340016
0.00340375
0.00340734
0.00341094
0.00341453
0.00341812
0.00342172
0.00342532
0.00342893
0.00343253
0.00343613
0.00343974
0.00344335
0.00344696
0.00345058
0.00345419
0.0034578
0.00346142
0.00346505
0.00346867
0.00347229
0.00347591
0.00347954
0.00348317
0.00348681
0.00349044
0.00349408
0.00349772
0.00350135
0.003505
0.00350864
0.00351228
0.00351593
0.00351958
0.00352324
0.00352689
0.00353054
0.0035342
0.00353786
0.00354152
0.00354518
0.00354884
0.00355251
0.00355618
0.00355985
0.00356352
0.00356719
0.00357087
0.00357455
0.00357823
0.00358191
0.00358559
0.00358927
0.00359296
0.00359665
0.00360034
0.00360403
0.00360773
0.00361142
0.00361512
0.00361882
0.00362252
0.00362623
0.00362993
0.00363364
0.00363735
0.00364106
0.00364477
0.00364849
0.00365221
0.00365592
0.00365964
0.00366337
0.00366709
0.00367082
0.00367455
0.00367828
0.00368201
0.00368574
0.00368948
0.00369322
0.00369696
0.0037007
0.00370444
0.00370819
0.00371194
0.00371569
0.00371944
0.00372319
0.00372695
0.00373071
0.00373447
0.00373822
0.00374199
0.00374575
0.00374952
0.00375329
0.00375706
0.00376083
0.0037646
0.00376838
0.00377216
0.00377593
0.00377972
0.0037835
0.00378729
0.00379107
0.00379486
0.00379865
0.00380244
0.00380624
0.00381004
0.00381383
0.00381763
0.00382143
0.00382524
0.00382905
0.00383285
0.00383666
0.00384047
0.00384429
0.0038481
0.00385192
0.00385574
0.00385956
0.00386338
0.00386721
0.00387104
0.00387487
0.0038787
0.00388253
0.00388637
0.00389021
0.00389404
0.00389788
0.00390172
0.00390557
0.00390942
0.00391326
0.00391711
0.00392096
0.00392482
0.00392867
0.00393253
0.00393639
0.00394025
0.00394411
0.00394798
0.00395184
0.00395571
0.00395958
0.00396346
0.00396733
0.0039712
0.00397508
0.00397896
0.00398285
0.00398673
0.00399061
0.0039945
0.00399839
0.00400228
0.00400618
0.00401007
0.00401396
0.00401786
0.00402177
0.00402567
0.00402957
0.00403347
0.00403738
0.00404129
0.00404521
0.00404912
0.00405304
0.00405696
0.00406087
0.0040648
0.00406872
0.00407265
0.00407657
0.0040805
0.00408444
0.00408837
0.0040923
0.00409624
0.00410018
0.00410412
0.00410806
0.004112
0.00411595
0.0041199
0.00412385
0.0041278
0.00413175
0.00413571
0.00413967
0.00414363
0.00414759
0.00415155
0.00415552
0.00415948
0.00416345
0.00416742
0.00417139
0.00417537
0.00417934
0.00418333
0.00418731
0.00419128
0.00419527
0.00419925
0.00420324
0.00420723
0.00421122
0.00421522
0.00421921
0.00422321
0.00422721
0.00423121
0.00423521
0.00423922
0.00424322
0.00424724
0.00425125
0.00425526
0.00425927
0.00426329
0.00426731
0.00427133
0.00427535
0.00427937
0.0042834
0.00428743
0.00429146
0.00429549
0.00429952
0.00430356
0.0043076
0.00431163
0.00431567
0.00431972
0.00432376
0.00432781
0.00433186
0.0043359
0.00433996
0.00434401
0.00434807
0.00435213
0.00435618
0.00436025
0.00436431
0.00436838
0.00437244
0.00437651
0.00438058
0.00438465
0.00438873
0.00439281
0.00439688
0.00440096
0.00440504
0.00440913
0.00441322
0.0044173
0.00442139
0.00442548
0.00442958
0.00443368
0.00443778
0.00444187
0.00444597
0.00445008
0.00445419
0.00445829
0.0044624
0.00446651
0.00447062
0.00447474
0.00447886
0.00448297
0.00448709
0.00449122
0.00449534
0.00449947
0.00450359
0.00450772
0.00451186
0.00451599
0.00452013
0.00452426
0.0045284
0.00453254
0.00453669
0.00454083
0.00454498
0.00454913
0.00455327
0.00455743
0.00456158
0.00456574
0.0045699
0.00457406
0.00457822
0.00458238
0.00458655
0.00459071
0.00459488
0.00459906
0.00460323
0.0046074
0.00461158
0.00461576
0.00461994
0.00462412
0.00462831
0.00463249
0.00463668
0.00464087
0.00464507
0.00464926
0.00465346
0.00465765
0.00466185
0.00466606
0.00467026
0.00467447
0.00467867
0.00468288
0.0046871
0.00469131
0.00469552
0.00469974
0.00470396
0.00470818
0.0047124
0.00471662
0.00472085
0.00472508
0.00472931
0.00473354
0.00473778
0.00474201
0.00474625
0.00475049
0.00475473
0.00475897
0.00476322
0.00476746
0.00477172
0.00477597
0.00478022
0.00478447
0.00478873
0.00479299
0.00479725
0.00480151
0.00480577
0.00481004
0.00481431
0.00481858
0.00482284
0.00482712
0.00483139
0.00483567
0.00483995
0.00484423
0.00484851
0.0048528
0.00485709
0.00486138
0.00486567
0.00486996
0.00487426
0.00487855
0.00488285
0.00488715
0.00489145
0.00489576
0.00490006
0.00490437
0.00490868
0.00491299
0.00491731
0.00492162
0.00492594
0.00493026
0.00493458
0.0049389
0.00494322
0.00494755
0.00495188
0.00495621
0.00496054
0.00496488
0.00496921
0.00497355
0.00497789
0.00498223
0.00498657
0.00499092
0.00499527
0.00499961
0.00500397
0.00500832
0.00501268
0.00501703
0.00502139
0.00502575
0.00503011
0.00503448
0.00503884
0.00504321
0.00504758
0.00505196
0.00505633
0.00506071
0.00506508
0.00506946
0.00507384
0.00507823
0.00508262
0.005087
0.00509139
0.00509578
0.00510017
0.00510457
0.00510897
0.00511336
0.00511777
0.00512217
0.00512657
0.00513098
0.00513539
0.0051398
0.00514421
0.00514862
0.00515304
0.00515745
0.00516187
0.00516629
0.00517072
0.00517514
0.00517957
0.005184
0.00518843
0.00519286
0.0051973
0.00520173
0.00520617
0.00521061
0.00521505
0.0052195
0.00522394
0.00522839
0.00523283
0.00523729
0.00524174
0.00524619
0.00525065
0.00525511
0.00525957
0.00526404
0.0052685
0.00527297
0.00527744
0.00528191
0.00528638
0.00529086
0.00529533
0.00529981
0.00530429
0.00530877
0.00531326
0.00531774
0.00532223
0.00532672
0.00533121
0.0053357
0.0053402
0.00534469
0.00534919
0.0053537
0.0053582
0.0053627
0.00536721
0.00537171
0.00537623
0.00538074
0.00538525
0.00538977
0.00539428
0.00539881
0.00540333
0.00540785
0.00541237
0.0054169
0.00542143
0.00542596
0.00543049
0.00543503
0.00543956
0.0054441
0.00544864
0.00545318
0.00545773
0.00546227
0.00546682
0.00547137
0.00547593
0.00548048
0.00548504
0.00548959
0.00549415
0.00549872
0.00550328
0.00550784
0.00551241
0.00551698
0.00552155
0.00552612
0.0055307
0.00553527
0.00553985
0.00554444
0.00554901
0.0055536
0.00555818
0.00556278
0.00556736
0.00557195
0.00557655
0.00558114
0.00558574
0.00559034
0.00559494
0.00559954
0.00560415
0.00560876
0.00561337
0.00561797
0.00562259
0.0056272
0.00563182
0.00563644
0.00564105
0.00564567
0.0056503
0.00565493
0.00565955
0.00566418
0.00566881
0.00567344
0.00567808
0.00568272
0.00568735
0.00569199
0.00569664
0.00570128
0.00570593
0.00571058
0.00571523
0.00571988
0.00572453
0.00572919
0.00573385
0.00573851
0.00574317
0.00574783
0.0057525
0.00575717
0.00576183
0.00576651
0.00577118
0.00577586
0.00578053
0.00578521
0.00578989
0.00579457
0.00579926
0.00580395
0.00580863
0.00581332
0.00581801
0.00582271
0.00582741
0.0058321
0.0058368
0.0058415
0.00584621
0.00585091
0.00585561
0.00586032
0.00586503
0.00586975
0.00587446
0.00587918
0.0058839
0.00588861
0.00589334
0.00589806
0.00590279
0.00590751
0.00591224
0.00591698
0.00592171
0.00592645
0.00593118
0.00593592
0.00594066
0.00594541
0.00595015
0.0059549
0.00595965
0.0059644
0.00596915
0.00597391
0.00597866
0.00598342
0.00598818
0.00599295
0.00599771
0.00600247
0.00600724
0.00601201
0.00601678
0.00602156
0.00602633
0.00603111
0.00603589
0.00604067
0.00604545
0.00605023
0.00605502
0.00605981
0.0060646
0.00606939
0.00607418
0.00607898
0.00608378
0.00608858
0.00609338
0.00609818
0.00610299
0.00610779
0.00611261
0.00611742
0.00612223
0.00612704
0.00613186
0.00613668
0.0061415
0.00614632
0.00615115
0.00615597
0.0061608
0.00616563
0.00617047
0.0061753
0.00618014
0.00618497
0.00618981
0.00619466
0.0061995
0.00620434
0.00620919
0.00621404
0.00621889
0.00622374
0.0062286
0.00623345
0.00623832
0.00624318
0.00624804
0.0062529
0.00625777
0.00626264
0.00626751
0.00627238
0.00627725