/*--------------------------------*- C++ -*----------------------------------*\
| =========                 |                                                 |
| \\      /  F ield         | OpenFOAM: The Open Source CFD Toolbox           |
|  \\    /   O peration     | Version:  2206                                  |
|   \\  /    A nd           | Website:  www.openfoam.com                      |
|    \\/     M anipulation  |                                                 |
\*---------------------------------------------------------------------------*/
FoamFile
{
    version     2.0;
    format      ascii;
    arch        "LSB;label=32;scalar=64";
    class       volVectorField;
    location    "530";
    object      U;
}
// * * * * * * * * * * * * * * * * * * * * * * * * * * * * * * * * * * * * * //

dimensions      [0 1 -1 0 0 0 0];

internalField   nonuniform List<vector> 
100000
(
(-5.18866e-12 6.47727e-06 3.50639e-13)
(-4.7237e-12 1.20926e-05 8.79723e-14)
(-8.0266e-12 2.20429e-05 1.46145e-13)
(-1.45082e-11 3.27276e-05 1.52949e-13)
(-1.79139e-11 4.24143e-05 8.95377e-14)
(-1.69257e-11 4.49065e-05 7.50414e-14)
(-2.06999e-11 5.48156e-05 1.41339e-13)
(-2.63653e-11 6.56422e-05 1.48113e-13)
(-3.13181e-11 7.64505e-05 1.49858e-13)
(-3.59061e-11 8.62235e-05 8.42197e-14)
(-3.4005e-11 8.865e-05 7.83747e-14)
(-3.84208e-11 9.85326e-05 1.43184e-13)
(-4.36545e-11 0.000109363 1.48729e-13)
(-4.88811e-11 0.000120181 1.47926e-13)
(-5.33633e-11 0.000129978 8.35398e-14)
(-5.13947e-11 0.000132392 7.88912e-14)
(-5.60277e-11 0.000142262 1.44429e-13)
(-6.09009e-11 0.000153093 1.48241e-13)
(-6.6656e-11 0.000163914 1.47861e-13)
(-7.04227e-11 0.000173722 8.24071e-14)
(-6.93682e-11 0.000176132 8.00158e-14)
(-7.28598e-11 0.000185995 1.44149e-13)
(-7.91455e-11 0.000196834 1.49834e-13)
(-8.32701e-11 0.000207751 1.51452e-13)
(-8.95825e-11 0.000218581 1.48115e-13)
(-9.31011e-11 0.000228397 8.36629e-14)
(-9.19799e-11 0.000230805 8.02945e-14)
(-9.57619e-11 0.000240662 1.46556e-13)
(-1.01508e-10 0.000251492 1.49557e-13)
(-1.06406e-10 0.000262316 1.48426e-13)
(-1.11088e-10 0.000272135 8.2658e-14)
(-1.09009e-10 0.000274542 8.0908e-14)
(-1.1359e-10 0.000284397 1.46067e-13)
(-1.18673e-10 0.000295227 1.49736e-13)
(-1.24115e-10 0.000306051 1.47795e-13)
(-1.28342e-10 0.000315873 8.26693e-14)
(-1.26645e-10 0.00031828 8.07458e-14)
(-1.30914e-10 0.000328132 1.46214e-13)
(-1.36254e-10 0.000338962 1.49447e-13)
(-1.41481e-10 0.000349787 1.47676e-13)
(-1.45883e-10 0.000359611 8.23835e-14)
(-1.44046e-10 0.000362017 8.08692e-14)
(-1.48432e-10 0.000371868 1.46121e-13)
(-1.53676e-10 0.000382697 1.49397e-13)
(-1.58977e-10 0.000393522 1.47437e-13)
(-1.63318e-10 0.000403348 8.22854e-14)
(-1.61532e-10 0.000405754 8.08595e-14)
(-1.65882e-10 0.000415603 1.46139e-13)
(-1.7115e-10 0.000426432 1.49278e-13)
(-1.76436e-10 0.000437258 1.47318e-13)
(-1.8078e-10 0.000447085 8.21412e-14)
(-1.79002e-10 0.000449491 8.09131e-14)
(-1.83337e-10 0.000459339 1.46094e-13)
(-1.88629e-10 0.000470168 1.49239e-13)
(-1.93879e-10 0.000480994 1.47161e-13)
(-1.98269e-10 0.000490822 8.20876e-14)
(-1.96434e-10 0.000493227 8.0887e-14)
(-2.00843e-10 0.000503075 1.46135e-13)
(-2.06043e-10 0.000513904 1.49118e-13)
(-2.11404e-10 0.00052473 1.47132e-13)
(-2.15658e-10 0.000534558 8.19235e-14)
(-2.13989e-10 0.000536964 8.10053e-14)
(-2.18199e-10 0.00054681 1.46004e-13)
(-2.23638e-10 0.000557639 1.49213e-13)
(-2.28711e-10 0.000568465 1.46874e-13)
(-2.33309e-10 0.000578295 8.20633e-14)
(-2.31228e-10 0.0005807 8.07729e-14)
(-2.35934e-10 0.000590546 1.46291e-13)
(-2.40779e-10 0.000601375 1.48817e-13)
(-2.46562e-10 0.000612201 1.47223e-13)
(-2.50308e-10 0.000622031 8.15009e-14)
(-2.49249e-10 0.000624437 8.13954e-14)
(-2.52733e-10 0.000634283 1.45594e-13)
(-2.59045e-10 0.000645119 1.50355e-13)
(-2.63154e-10 0.000656037 1.50864e-13)
(-2.69472e-10 0.000666871 1.46817e-13)
(-2.72969e-10 0.000676702 8.25291e-14)
(-2.71882e-10 0.000679107 8.08538e-14)
(-2.75643e-10 0.000688952 1.46846e-13)
(-2.8141e-10 0.000699781 1.49199e-13)
(-2.8628e-10 0.000710607 1.47464e-13)
(-2.90976e-10 0.000720438 8.18301e-14)
(-2.88893e-10 0.000722843 8.13752e-14)
(-2.93485e-10 0.000732688 1.46374e-13)
(-2.9856e-10 0.000743516 1.49508e-13)
(-3.04005e-10 0.000754343 1.47088e-13)
(-3.08221e-10 0.000764175 8.20288e-14)
(-3.0654e-10 0.00076658 8.1162e-14)
(-3.10797e-10 0.000776424 1.46516e-13)
(-3.16152e-10 0.000787252 1.49318e-13)
(-3.21361e-10 0.000798079 1.47137e-13)
(-3.25775e-10 0.000807911 8.18881e-14)
(-3.23927e-10 0.000810316 8.12334e-14)
(-3.28328e-10 0.00082016 1.46429e-13)
(-3.33558e-10 0.000830988 1.49322e-13)
(-3.38875e-10 0.000841815 1.47042e-13)
(-3.43192e-10 0.000851647 8.1873e-14)
(-3.41435e-10 0.000854052 8.12119e-14)
(-3.45751e-10 0.000863896 1.46413e-13)
(-3.51063e-10 0.000874724 1.49283e-13)
(-3.56297e-10 0.000885551 1.46979e-13)
(-3.60699e-10 0.000895383 8.18538e-14)
(-3.58852e-10 0.000897788 8.11803e-14)
(-3.63269e-10 0.000907632 1.46429e-13)
(-3.68466e-10 0.00091846 1.49199e-13)
(-3.7383e-10 0.000929287 1.46993e-13)
(-3.78082e-10 0.00093912 8.1743e-14)
(-3.76412e-10 0.000941525 8.12711e-14)
(-3.80621e-10 0.000951368 1.46294e-13)
(-3.86064e-10 0.000962196 1.49306e-13)
(-3.91136e-10 0.000973023 1.4678e-13)
(-3.95734e-10 0.000982856 8.19162e-14)
(-3.93651e-10 0.000985261 8.10223e-14)
(-3.98355e-10 0.000995103 1.46571e-13)
(-4.03205e-10 0.00100593 1.48923e-13)
(-4.08986e-10 0.00101676 1.47165e-13)
(-4.12735e-10 0.00102659 8.13789e-14)
(-4.11669e-10 0.001029 8.16347e-14)
(-4.15157e-10 0.00103884 1.45858e-13)
(-4.21469e-10 0.00104968 1.50475e-13)
(-4.25579e-10 0.00106059 1.5079e-13)
(-4.31895e-10 0.00107143 1.4661e-13)
(-4.35391e-10 0.00108126 8.23339e-14)
(-4.34307e-10 0.00108367 8.09788e-14)
(-4.38067e-10 0.00109351 1.46933e-13)
(-4.43836e-10 0.00110434 1.49154e-13)
(-4.48703e-10 0.00111516 1.4729e-13)
(-4.534e-10 0.001125 8.16676e-14)
(-4.51318e-10 0.0011274 8.14955e-14)
(-4.55909e-10 0.00113725 1.4647e-13)
(-4.60986e-10 0.00114807 1.49484e-13)
(-4.66428e-10 0.0011589 1.46945e-13)
(-4.70646e-10 0.00116873 8.18926e-14)
(-4.68962e-10 0.00117114 8.12766e-14)
(-4.73224e-10 0.00118098 1.46622e-13)
(-4.78574e-10 0.00119181 1.49306e-13)
(-4.83788e-10 0.00120264 1.47029e-13)
(-4.88194e-10 0.00121247 8.17646e-14)
(-4.86357e-10 0.00121488 8.13549e-14)
(-4.90745e-10 0.00122472 1.46528e-13)
(-4.95991e-10 0.00123555 1.49339e-13)
(-5.01289e-10 0.00124637 1.4694e-13)
(-5.05628e-10 0.00125621 8.17863e-14)
(-5.03844e-10 0.00125861 8.13078e-14)
(-5.08193e-10 0.00126845 1.46544e-13)
(-5.13467e-10 0.00127928 1.49279e-13)
(-5.18747e-10 0.00129011 1.46937e-13)
(-5.23093e-10 0.00129994 8.17346e-14)
(-5.21312e-10 0.00130235 8.13306e-14)
(-5.25649e-10 0.00131219 1.46495e-13)
(-5.30944e-10 0.00132302 1.49286e-13)
(-5.36192e-10 0.00133384 1.4687e-13)
(-5.40582e-10 0.00134368 8.1754e-14)
(-5.38745e-10 0.00134608 8.12786e-14)
(-5.43153e-10 0.00135593 1.46531e-13)
(-5.48359e-10 0.00136675 1.49201e-13)
(-5.53715e-10 0.00137758 1.46914e-13)
(-5.57972e-10 0.00138742 8.16487e-14)
(-5.56297e-10 0.00138982 8.13748e-14)
(-5.60511e-10 0.00139966 1.46393e-13)
(-5.65951e-10 0.00141049 1.49324e-13)
(-5.71025e-10 0.00142132 1.46712e-13)
(-5.75621e-10 0.00143115 8.18384e-14)
(-5.7354e-10 0.00143356 8.11204e-14)
(-5.78242e-10 0.0014434 1.46675e-13)
(-5.83095e-10 0.00145423 1.48946e-13)
(-5.88873e-10 0.00146505 1.47115e-13)
(-5.92625e-10 0.00147489 8.13081e-14)
(-5.91556e-10 0.00147729 8.17352e-14)
(-5.95045e-10 0.00148713 1.45959e-13)
(-6.01357e-10 0.00149797 1.50509e-13)
(-6.05468e-10 0.00150889 1.50729e-13)
(-6.11783e-10 0.00151972 1.46488e-13)
(-6.15277e-10 0.00152956 8.22251e-14)
(-6.14197e-10 0.00153196 8.10287e-14)
(-6.17955e-10 0.0015418 1.46952e-13)
(-6.23725e-10 0.00155263 1.4911e-13)
(-6.28589e-10 0.00156346 1.47179e-13)
(-6.33288e-10 0.00157329 8.15745e-14)
(-6.31205e-10 0.0015757 8.15429e-14)
(-6.35799e-10 0.00158554 1.46499e-13)
(-6.40873e-10 0.00159637 1.49448e-13)
(-6.46317e-10 0.0016072 1.46852e-13)
(-6.50531e-10 0.00161703 8.18061e-14)
(-6.48854e-10 0.00161943 8.13291e-14)
(-6.53109e-10 0.00162928 1.46652e-13)
(-6.58466e-10 0.0016401 1.49285e-13)
(-6.63672e-10 0.00165093 1.46942e-13)
(-6.68087e-10 0.00166077 8.16949e-14)
(-6.66239e-10 0.00166317 8.1399e-14)
(-6.70641e-10 0.00167301 1.46574e-13)
(-6.75871e-10 0.00168384 1.49312e-13)
(-6.81188e-10 0.00169467 1.46881e-13)
(-6.85504e-10 0.0017045 8.17059e-14)
(-6.83747e-10 0.00170691 8.13753e-14)
(-6.88063e-10 0.00171675 1.46567e-13)
(-6.93376e-10 0.00172758 1.49293e-13)
(-6.9861e-10 0.0017384 1.46849e-13)
(-7.03011e-10 0.00174824 8.17088e-14)
(-7.01164e-10 0.00175064 8.1342e-14)
(-7.05581e-10 0.00176048 1.46589e-13)
(-7.10781e-10 0.00177131 1.49225e-13)
(-7.16142e-10 0.00178214 1.46889e-13)
(-7.20395e-10 0.00179197 8.16177e-14)
(-7.18723e-10 0.00179438 8.14307e-14)
(-7.22934e-10 0.00180422 1.46459e-13)
(-7.28377e-10 0.00181505 1.49348e-13)
(-7.33449e-10 0.00182588 1.46699e-13)
(-7.38046e-10 0.00183571 8.18089e-14)
(-7.35963e-10 0.00183812 8.11787e-14)
(-7.40666e-10 0.00184796 1.46742e-13)
(-7.4552e-10 0.00185878 1.48975e-13)
(-7.51297e-10 0.00186961 1.47106e-13)
(-7.55049e-10 0.00187945 8.12834e-14)
(-7.53979e-10 0.00188185 8.17935e-14)
(-7.57469e-10 0.00189169 1.46026e-13)
(-7.63782e-10 0.00190253 1.50542e-13)
(-7.67892e-10 0.00191345 1.50716e-13)
(-7.74207e-10 0.00192428 1.46442e-13)
(-7.77701e-10 0.00193412 8.21803e-14)
(-7.76621e-10 0.00193652 8.10621e-14)
(-7.80379e-10 0.00194636 1.46978e-13)
(-7.8615e-10 0.00195719 1.49103e-13)
(-7.91014e-10 0.00196802 1.47139e-13)
(-7.95712e-10 0.00197785 8.15343e-14)
(-7.9363e-10 0.00198026 8.15778e-14)
(-7.98222e-10 0.0019901 1.46528e-13)
(-8.03298e-10 0.00200093 1.49447e-13)
(-8.0874e-10 0.00201175 1.46817e-13)
(-8.12957e-10 0.00202159 8.17731e-14)
(-8.11276e-10 0.00202399 8.13612e-14)
(-8.15536e-10 0.00203383 1.46688e-13)
(-8.20887e-10 0.00204466 1.49283e-13)
(-8.261e-10 0.00205549 1.46919e-13)
(-8.30507e-10 0.00206533 8.16582e-14)
(-8.28669e-10 0.00206773 8.14409e-14)
(-8.33058e-10 0.00207757 1.46602e-13)
(-8.38304e-10 0.0020884 1.49328e-13)
(-8.43602e-10 0.00209923 1.46847e-13)
(-8.4794e-10 0.00210906 8.16919e-14)
(-8.46157e-10 0.00211147 8.13949e-14)
(-8.50505e-10 0.00212131 1.46624e-13)
(-8.5578e-10 0.00213213 1.49279e-13)
(-8.61059e-10 0.00214296 1.4686e-13)
(-8.65406e-10 0.0021528 8.16509e-14)
(-8.63624e-10 0.0021552 8.14186e-14)
(-8.67961e-10 0.00216504 1.4658e-13)
(-8.73257e-10 0.00217587 1.49296e-13)
(-8.78504e-10 0.0021867 1.46806e-13)
(-8.82894e-10 0.00219653 8.168e-14)
(-8.81057e-10 0.00219894 8.13673e-14)
(-8.85465e-10 0.00220878 1.46621e-13)
(-8.90672e-10 0.00221961 1.4922e-13)
(-8.96028e-10 0.00223043 1.46862e-13)
(-9.00285e-10 0.00224027 8.15835e-14)
(-8.98609e-10 0.00224267 8.14641e-14)
(-9.02823e-10 0.00225251 1.46487e-13)
(-9.08264e-10 0.00226334 1.49351e-13)
(-9.13338e-10 0.00227417 1.46672e-13)
(-9.17933e-10 0.00228401 8.17817e-14)
(-9.15852e-10 0.00228641 8.12094e-14)
(-9.20553e-10 0.00229625 1.46775e-13)
(-9.25409e-10 0.00230708 1.48979e-13)
(-9.31185e-10 0.00231791 1.47086e-13)
(-9.34938e-10 0.00232774 8.12568e-14)
(-9.33867e-10 0.00233015 8.1827e-14)
(-9.37357e-10 0.00233999 1.46058e-13)
(-9.4367e-10 0.00235082 1.50551e-13)
(-9.4778e-10 0.00236174 1.50692e-13)
(-9.54095e-10 0.00237258 1.46395e-13)
(-9.57589e-10 0.00238241 8.21394e-14)
(-9.5651e-10 0.00238482 8.10787e-14)
(-9.60267e-10 0.00239466 1.46982e-13)
(-9.66039e-10 0.00240548 1.49084e-13)
(-9.70901e-10 0.00241631 1.47095e-13)
(-9.75601e-10 0.00242615 8.14991e-14)
(-9.73517e-10 0.00242855 8.1593e-14)
(-9.78112e-10 0.00243839 1.46536e-13)
(-9.83185e-10 0.00244922 1.49429e-13)
(-9.8863e-10 0.00246005 1.4678e-13)
(-9.92843e-10 0.00246988 8.17376e-14)
(-9.91166e-10 0.00247229 8.13812e-14)
(-9.95421e-10 0.00248213 1.46695e-13)
(-1.00078e-09 0.00249296 1.49274e-13)
(-1.00598e-09 0.00250378 1.4688e-13)
(-1.0104e-09 0.00251362 8.16331e-14)
(-1.00855e-09 0.00251602 8.14526e-14)
(-1.01295e-09 0.00252586 1.46621e-13)
(-1.01818e-09 0.00253669 1.49309e-13)
(-1.0235e-09 0.00254752 1.46828e-13)
(-1.02782e-09 0.00255736 8.16505e-14)
(-1.02606e-09 0.00255976 8.143e-14)
(-1.03038e-09 0.0025696 1.46619e-13)
(-1.03569e-09 0.00258043 1.49296e-13)
(-1.04092e-09 0.00259126 1.46805e-13)
(-1.04532e-09 0.00260109 8.1659e-14)
(-1.04348e-09 0.0026035 8.1398e-14)
(-1.04789e-09 0.00261334 1.46645e-13)
(-1.05309e-09 0.00262416 1.49235e-13)
(-1.05845e-09 0.00263499 1.46853e-13)
(-1.06271e-09 0.00264483 8.15733e-14)
(-1.06103e-09 0.00264723 8.14877e-14)
(-1.06525e-09 0.00265707 1.46519e-13)
(-1.07069e-09 0.0026679 1.49363e-13)
(-1.07576e-09 0.00267873 1.46669e-13)
(-1.08036e-09 0.00268856 8.17697e-14)
(-1.07828e-09 0.00269097 8.12362e-14)
(-1.08298e-09 0.00270081 1.46805e-13)
(-1.08783e-09 0.00271164 1.48994e-13)
(-1.09361e-09 0.00272246 1.47084e-13)
(-1.09736e-09 0.0027323 8.12476e-14)
(-1.09629e-09 0.00273471 8.18534e-14)
(-1.09978e-09 0.00274455 1.4609e-13)
(-1.10609e-09 0.00275538 1.50568e-13)
(-1.1102e-09 0.0027663 1.50688e-13)
(-1.11652e-09 0.00277713 1.46377e-13)
(-1.12001e-09 0.00278697 8.21209e-14)
(-1.11893e-09 0.00278938 8.10945e-14)
(-1.12269e-09 0.00279921 1.46996e-13)
(-1.12846e-09 0.00281004 1.49082e-13)
(-1.13333e-09 0.00282087 1.4708e-13)
(-1.13802e-09 0.00283071 8.14816e-14)
(-1.13594e-09 0.00283311 8.16106e-14)
(-1.14054e-09 0.00284295 1.46551e-13)
(-1.14561e-09 0.00285378 1.49432e-13)
(-1.15105e-09 0.00286461 1.46765e-13)
(-1.15527e-09 0.00287444 8.17247e-14)
(-1.15359e-09 0.00287685 8.13957e-14)
(-1.15785e-09 0.00288669 1.46715e-13)
(-1.1632e-09 0.00289752 1.49273e-13)
(-1.16841e-09 0.00290834 1.46874e-13)
(-1.17282e-09 0.00291818 8.16142e-14)
(-1.17098e-09 0.00292058 8.14768e-14)
(-1.17537e-09 0.00293042 1.46632e-13)
(-1.18062e-09 0.00294125 1.49323e-13)
(-1.18591e-09 0.00295208 1.46808e-13)
(-1.19025e-09 0.00296191 8.1652e-14)
(-1.18847e-09 0.00296432 8.14319e-14)
(-1.19282e-09 0.00297416 1.46658e-13)
(-1.19809e-09 0.00298499 1.49279e-13)
(-1.20337e-09 0.00299581 1.46826e-13)
(-1.20772e-09 0.00300565 8.16148e-14)
(-1.20594e-09 0.00300806 8.14568e-14)
(-1.21027e-09 0.0030179 1.46617e-13)
(-1.21557e-09 0.00302872 1.49301e-13)
(-1.22082e-09 0.00303955 1.46778e-13)
(-1.22521e-09 0.00304939 8.16475e-14)
(-1.22337e-09 0.00305179 8.14065e-14)
(-1.22778e-09 0.00306163 1.46661e-13)
(-1.23299e-09 0.00307246 1.49228e-13)
(-1.23834e-09 0.00308329 1.46839e-13)
(-1.2426e-09 0.00309312 8.15543e-14)
(-1.24092e-09 0.00309553 8.15043e-14)
(-1.24514e-09 0.00310537 1.4653e-13)
(-1.25058e-09 0.0031162 1.49363e-13)
(-1.25565e-09 0.00312702 1.46654e-13)
(-1.26025e-09 0.00313686 8.17559e-14)
(-1.25816e-09 0.00313926 8.12501e-14)
(-1.26287e-09 0.0031491 1.4682e-13)
(-1.26772e-09 0.00315993 1.48994e-13)
(-1.2735e-09 0.00317076 1.47073e-13)
(-1.27725e-09 0.0031806 8.1233e-14)
(-1.27618e-09 0.003183 8.18697e-14)
(-1.27967e-09 0.00319284 1.46104e-13)
(-1.28598e-09 0.00320368 1.50571e-13)
(-1.29009e-09 0.00321459 1.50674e-13)
(-1.29641e-09 0.00322543 1.46352e-13)
(-1.2999e-09 0.00323527 8.20989e-14)
(-1.29882e-09 0.00323767 8.11024e-14)
(-1.30258e-09 0.00324751 1.46996e-13)
(-1.30835e-09 0.00325834 1.49071e-13)
(-1.31321e-09 0.00326916 1.47055e-13)
(-1.31791e-09 0.003279 8.1463e-14)
(-1.31583e-09 0.00328141 8.16171e-14)
(-1.32042e-09 0.00329125 1.46554e-13)
(-1.3255e-09 0.00330207 1.4942e-13)
(-1.33094e-09 0.0033129 1.46745e-13)
(-1.33516e-09 0.00332274 8.17042e-14)
(-1.33348e-09 0.00332514 8.14066e-14)
(-1.33773e-09 0.00333498 1.46716e-13)
(-1.34309e-09 0.00334581 1.49269e-13)
(-1.3483e-09 0.00335664 1.4685e-13)
(-1.35271e-09 0.00336647 8.16027e-14)
(-1.35086e-09 0.00336888 8.14791e-14)
(-1.35527e-09 0.00337872 1.46645e-13)
(-1.3605e-09 0.00338955 1.49307e-13)
(-1.36581e-09 0.00340037 1.46802e-13)
(-1.37013e-09 0.00341021 8.16228e-14)
(-1.36837e-09 0.00341261 8.14575e-14)
(-1.37269e-09 0.00342245 1.46645e-13)
(-1.378e-09 0.00343328 1.49298e-13)
(-1.38323e-09 0.00344411 1.46782e-13)
(-1.38764e-09 0.00345395 8.16339e-14)
(-1.38579e-09 0.00345635 8.14263e-14)
(-1.3902e-09 0.00346619 1.46673e-13)
(-1.39541e-09 0.00347702 1.49239e-13)
(-1.40077e-09 0.00348785 1.46834e-13)
(-1.40502e-09 0.00349768 8.15506e-14)
(-1.40335e-09 0.00350009 8.1517e-14)
(-1.40756e-09 0.00350993 1.46549e-13)
(-1.413e-09 0.00352075 1.4937e-13)
(-1.41807e-09 0.00353158 1.46654e-13)
(-1.42267e-09 0.00354142 8.17495e-14)
(-1.42059e-09 0.00354382 8.12661e-14)
(-1.42529e-09 0.00355366 1.46838e-13)
(-1.43015e-09 0.00356449 1.49004e-13)
(-1.43592e-09 0.00357532 1.47073e-13)
(-1.43968e-09 0.00358515 8.12288e-14)
(-1.4386e-09 0.00358756 8.18849e-14)
(-1.44209e-09 0.0035974 1.46123e-13)
(-1.44841e-09 0.00360823 1.50581e-13)
(-1.45252e-09 0.00361915 1.50674e-13)
(-1.45883e-09 0.00362999 1.46343e-13)
(-1.46232e-09 0.00363982 8.20894e-14)
(-1.46125e-09 0.00364223 8.11117e-14)
(-1.465e-09 0.00365207 1.47006e-13)
(-1.47078e-09 0.0036629 1.49071e-13)
(-1.47564e-09 0.00367372 1.47048e-13)
(-1.48034e-09 0.00368356 8.14533e-14)
(-1.47825e-09 0.00368596 8.16282e-14)
(-1.48285e-09 0.0036958 1.46563e-13)
(-1.48792e-09 0.00370663 1.49424e-13)
(-1.49336e-09 0.00371746 1.46737e-13)
(-1.49758e-09 0.0037273 8.16984e-14)
(-1.4959e-09 0.0037297 8.14144e-14)
(-1.50016e-09 0.00373954 1.4673e-13)
(-1.50551e-09 0.00375037 1.49268e-13)
(-1.51072e-09 0.0037612 1.46849e-13)
(-1.51513e-09 0.00377103 8.15901e-14)
(-1.51329e-09 0.00377344 8.14964e-14)
(-1.51768e-09 0.00378328 1.46649e-13)
(-1.52293e-09 0.0037941 1.49321e-13)
(-1.52823e-09 0.00380493 1.46786e-13)
(-1.53256e-09 0.00381477 8.16299e-14)
(-1.53078e-09 0.00381717 8.14524e-14)
(-1.53513e-09 0.00382701 1.46677e-13)
(-1.54041e-09 0.00383784 1.49279e-13)
(-1.54568e-09 0.00384867 1.46808e-13)
(-1.55003e-09 0.0038585 8.15947e-14)
(-1.54825e-09 0.00386091 8.14781e-14)
(-1.55259e-09 0.00387075 1.46638e-13)
(-1.55788e-09 0.00388158 1.49303e-13)
(-1.56313e-09 0.0038924 1.46763e-13)
(-1.56752e-09 0.00390224 8.16291e-14)
(-1.56568e-09 0.00390465 8.14286e-14)
(-1.57009e-09 0.00391448 1.46683e-13)
(-1.5753e-09 0.00392531 1.49233e-13)
(-1.58065e-09 0.00393614 1.46826e-13)
(-1.58491e-09 0.00394598 8.15377e-14)
(-1.58323e-09 0.00394838 8.15271e-14)
(-1.58745e-09 0.00395822 1.46554e-13)
(-1.59289e-09 0.00396905 1.4937e-13)
(-1.59796e-09 0.00397988 1.46643e-13)
(-1.60256e-09 0.00398971 8.17411e-14)
(-1.60048e-09 0.00399212 8.12735e-14)
(-1.60518e-09 0.00400196 1.46846e-13)
(-1.61003e-09 0.00401278 1.49003e-13)
(-1.61581e-09 0.00402361 1.47065e-13)
(-1.61956e-09 0.00403345 8.12193e-14)
(-1.61849e-09 0.00403585 8.18943e-14)
(-1.62198e-09 0.00404569 1.46131e-13)
(-1.6283e-09 0.00405653 1.50582e-13)
(-1.63241e-09 0.00406745 1.50664e-13)
(-1.63872e-09 0.00407828 1.46327e-13)
(-1.64221e-09 0.00408812 8.20754e-14)
(-1.64114e-09 0.00409052 8.11162e-14)
(-1.64489e-09 0.00410036 1.47005e-13)
(-1.65066e-09 0.00411119 1.49064e-13)
(-1.65553e-09 0.00412202 1.47032e-13)
(-1.66023e-09 0.00413185 8.14418e-14)
(-1.65814e-09 0.00413426 8.16312e-14)
(-1.66274e-09 0.0041441 1.46565e-13)
(-1.66781e-09 0.00415493 1.49415e-13)
(-1.67325e-09 0.00416575 1.46724e-13)
(-1.67747e-09 0.00417559 8.16846e-14)
(-1.67579e-09 0.004178 8.14216e-14)
(-1.68005e-09 0.00418783 1.46728e-13)
(-1.6854e-09 0.00419866 1.49266e-13)
(-1.69061e-09 0.00420949 1.46831e-13)
(-1.69502e-09 0.00421933 8.15846e-14)
(-1.69318e-09 0.00422173 8.14949e-14)
(-1.69758e-09 0.00423157 1.46659e-13)
(-1.70281e-09 0.0042424 1.49306e-13)
(-1.70812e-09 0.00425323 1.46786e-13)
(-1.71244e-09 0.00426306 8.16062e-14)
(-1.71068e-09 0.00426547 8.14739e-14)
(-1.715e-09 0.00427531 1.4666e-13)
(-1.72031e-09 0.00428613 1.49299e-13)
(-1.72555e-09 0.00429696 1.46769e-13)
(-1.72995e-09 0.0043068 8.16187e-14)
(-1.7281e-09 0.0043092 8.14435e-14)
(-1.73252e-09 0.00431904 1.4669e-13)
(-1.73772e-09 0.00432987 1.49242e-13)
(-1.74308e-09 0.0043407 1.46823e-13)
(-1.74733e-09 0.00435054 8.15369e-14)
(-1.74566e-09 0.00435294 8.15348e-14)
(-1.74987e-09 0.00436278 1.46568e-13)
(-1.75531e-09 0.00437361 1.49375e-13)
(-1.76039e-09 0.00438443 1.46645e-13)
(-1.76498e-09 0.00439427 8.17371e-14)
(-1.7629e-09 0.00439668 8.12844e-14)
(-1.7676e-09 0.00440652 1.46858e-13)
(-1.77246e-09 0.00441734 1.49011e-13)
(-1.77823e-09 0.00442817 1.47066e-13)
(-1.78199e-09 0.00443801 8.12173e-14)
(-1.78092e-09 0.00444041 8.19043e-14)
(-1.78441e-09 0.00445025 1.46144e-13)
(-1.79072e-09 0.00446109 1.5059e-13)
(-1.79483e-09 0.00447201 1.50664e-13)
(-1.80114e-09 0.00448284 1.46321e-13)
(-1.80464e-09 0.00449268 8.20699e-14)
(-1.80356e-09 0.00449508 8.11224e-14)
(-1.80732e-09 0.00450492 1.47012e-13)
(-1.81309e-09 0.00451575 1.49065e-13)
(-1.81795e-09 0.00452658 1.47028e-13)
(-1.82265e-09 0.00453641 8.14356e-14)
(-1.82057e-09 0.00453882 8.16392e-14)
(-1.82516e-09 0.00454866 1.46571e-13)
(-1.83024e-09 0.00455949 1.49418e-13)
(-1.83568e-09 0.00457031 1.46719e-13)
(-1.83989e-09 0.00458015 8.1682e-14)
(-1.83821e-09 0.00458255 8.14262e-14)
(-1.84247e-09 0.00459239 1.46739e-13)
(-1.84783e-09 0.00460322 1.49265e-13)
(-1.85304e-09 0.00461405 1.46833e-13)
(-1.85744e-09 0.00462389 8.15749e-14)
(-1.85561e-09 0.00462629 8.15088e-14)
(-1.86e-09 0.00463613 1.46659e-13)
(-1.86524e-09 0.00464696 1.49319e-13)
(-1.87054e-09 0.00465778 1.46773e-13)
(-1.87488e-09 0.00466762 8.16159e-14)
(-1.87309e-09 0.00467003 8.14654e-14)
(-1.87744e-09 0.00467987 1.46689e-13)
(-1.88272e-09 0.00469069 1.49279e-13)
(-1.888e-09 0.00470152 1.46796e-13)
(-1.89234e-09 0.00471136 8.15818e-14)
(-1.89056e-09 0.00471376 8.14917e-14)
(-1.8949e-09 0.0047236 1.46651e-13)
(-1.90019e-09 0.00473443 1.49305e-13)
(-1.90544e-09 0.00474526 1.46753e-13)
(-1.90983e-09 0.00475509 8.16175e-14)
(-1.90799e-09 0.0047575 8.14427e-14)
(-1.9124e-09 0.00476734 1.46698e-13)
(-1.91761e-09 0.00477817 1.49236e-13)
(-1.92296e-09 0.00478899 1.46818e-13)
(-1.92722e-09 0.00479883 8.1527e-14)
(-1.92555e-09 0.00480123 8.15419e-14)
(-1.92976e-09 0.00481107 1.4657e-13)
(-1.9352e-09 0.0048219 1.49375e-13)
(-1.94028e-09 0.00483273 1.46636e-13)
(-1.94487e-09 0.00484257 8.17316e-14)
(-1.94279e-09 0.00484497 8.12886e-14)
(-1.94749e-09 0.00485481 1.46863e-13)
(-1.95235e-09 0.00486564 1.49009e-13)
(-1.95812e-09 0.00487647 1.4706e-13)
(-1.96188e-09 0.0048863 8.12104e-14)
(-1.9608e-09 0.00488871 8.19105e-14)
(-1.96429e-09 0.00489855 1.46148e-13)
(-1.97061e-09 0.00490938 1.5059e-13)
(-1.97472e-09 0.0049203 1.50657e-13)
(-1.98103e-09 0.00493113 1.4631e-13)
(-1.98452e-09 0.00494097 8.20599e-14)
(-1.98345e-09 0.00494338 8.11253e-14)
(-1.9872e-09 0.00495322 1.4701e-13)
(-1.99298e-09 0.00496404 1.49059e-13)
(-1.99784e-09 0.00497487 1.47016e-13)
(-2.00254e-09 0.00498471 8.14279e-14)
(-2.00045e-09 0.00498711 8.16405e-14)
(-2.00505e-09 0.00499695 1.46572e-13)
(-2.01012e-09 0.00500778 1.49411e-13)
(-2.01557e-09 0.00501861 1.46711e-13)
(-2.01978e-09 0.00502844 8.16716e-14)
(-2.0181e-09 0.00503085 8.14316e-14)
(-2.02236e-09 0.00504069 1.46736e-13)
(-2.02772e-09 0.00505152 1.49264e-13)
(-2.03292e-09 0.00506234 1.46819e-13)
(-2.03734e-09 0.00507218 8.15726e-14)
(-2.03549e-09 0.00507459 8.15054e-14)
(-2.03989e-09 0.00508442 1.46668e-13)
(-2.04512e-09 0.00509525 1.49306e-13)
(-2.05044e-09 0.00510608 1.46775e-13)
(-2.05475e-09 0.00511592 8.15951e-14)
(-2.053e-09 0.00511832 8.1485e-14)
(-2.05731e-09 0.00512816 1.46671e-13)
(-2.06263e-09 0.00513899 1.49299e-13)
(-2.06786e-09 0.00514982 1.4676e-13)
(-2.07226e-09 0.00515965 8.16086e-14)
(-2.07041e-09 0.00516206 8.1455e-14)
(-2.07483e-09 0.0051719 1.46702e-13)
(-2.08003e-09 0.00518272 1.49244e-13)
(-2.08539e-09 0.00519355 1.46815e-13)
(-2.08965e-09 0.00520339 8.15276e-14)
(-2.08797e-09 0.00520579 8.15468e-14)
(-2.09218e-09 0.00521563 1.4658e-13)
(-2.09763e-09 0.00522646 1.49378e-13)
(-2.1027e-09 0.00523729 1.46638e-13)
(-2.1073e-09 0.00524712 8.17288e-14)
(-2.10521e-09 0.00524953 8.12967e-14)
(-2.10991e-09 0.00525937 1.46872e-13)
(-2.11477e-09 0.0052702 1.49015e-13)
(-2.12055e-09 0.00528102 1.47061e-13)
(-2.1243e-09 0.00529086 8.12094e-14)
(-2.12323e-09 0.00529327 8.19175e-14)
(-2.12672e-09 0.0053031 1.46158e-13)
(-2.13303e-09 0.00531394 1.50595e-13)
(-2.13714e-09 0.00532486 1.50658e-13)
(-2.14346e-09 0.00533569 1.46307e-13)
(-2.14695e-09 0.00534553 8.20566e-14)
(-2.14587e-09 0.00534794 8.11298e-14)
(-2.14963e-09 0.00535777 1.47016e-13)
(-2.1554e-09 0.0053686 1.4906e-13)
(-2.16026e-09 0.00537943 1.47015e-13)
(-2.16496e-09 0.00538927 8.14236e-14)
(-2.16288e-09 0.00539167 8.16467e-14)
(-2.16747e-09 0.00540151 1.46576e-13)
(-2.17255e-09 0.00541234 1.49415e-13)
(-2.17799e-09 0.00542317 1.46707e-13)
(-2.18221e-09 0.005433 8.16707e-14)
(-2.18053e-09 0.00543541 8.14343e-14)
(-2.18479e-09 0.00544525 1.46745e-13)
(-2.19014e-09 0.00545607 1.49263e-13)
(-2.19535e-09 0.0054669 1.46823e-13)
(-2.19976e-09 0.00547674 8.15645e-14)
(-2.19792e-09 0.00547914 8.15174e-14)
(-2.20231e-09 0.00548898 1.46667e-13)
(-2.20755e-09 0.00549981 1.49318e-13)
(-2.21285e-09 0.00551064 1.46763e-13)
(-2.21719e-09 0.00552048 8.16062e-14)
(-2.21541e-09 0.00552288 8.14745e-14)
(-2.21975e-09 0.00553272 1.46697e-13)
(-2.22503e-09 0.00554355 1.49279e-13)
(-2.23031e-09 0.00555437 1.46787e-13)
(-2.23466e-09 0.00556421 8.1573e-14)
(-2.23287e-09 0.00556662 8.15011e-14)
(-2.23721e-09 0.00557645 1.46661e-13)
(-2.24251e-09 0.00558728 1.49306e-13)
(-2.24775e-09 0.00559811 1.46746e-13)
(-2.25214e-09 0.00560795 8.16093e-14)
(-2.25031e-09 0.00561035 8.14527e-14)
(-2.25471e-09 0.00562019 1.46708e-13)
(-2.25992e-09 0.00563102 1.49238e-13)
(-2.26528e-09 0.00564185 1.46812e-13)
(-2.26954e-09 0.00565168 8.15196e-14)
(-2.26786e-09 0.00565409 8.15522e-14)
(-2.27207e-09 0.00566393 1.46581e-13)
(-2.27751e-09 0.00567475 1.49378e-13)
(-2.28259e-09 0.00568558 1.46632e-13)
(-2.28718e-09 0.00569542 8.17248e-14)
(-2.2851e-09 0.00569782 8.12992e-14)
(-2.2898e-09 0.00570766 1.46875e-13)
(-2.29466e-09 0.00571849 1.49013e-13)
(-2.30043e-09 0.00572932 1.47057e-13)
(-2.30419e-09 0.00573916 8.12041e-14)
(-2.30312e-09 0.00574156 8.19217e-14)
(-2.30661e-09 0.0057514 1.46161e-13)
(-2.31292e-09 0.00576223 1.50595e-13)
(-2.31703e-09 0.00577315 1.50652e-13)
(-2.32334e-09 0.00578399 1.46299e-13)
(-2.32684e-09 0.00579383 8.20491e-14)
(-2.32576e-09 0.00579623 8.11317e-14)
(-2.32952e-09 0.00580607 1.47014e-13)
(-2.33529e-09 0.0058169 1.49056e-13)
(-2.34015e-09 0.00582772 1.47006e-13)
(-2.34485e-09 0.00583756 8.1418e-14)
(-2.34277e-09 0.00583997 8.16472e-14)
(-2.34736e-09 0.00584981 1.46577e-13)
(-2.35244e-09 0.00586063 1.49409e-13)
(-2.35788e-09 0.00587146 1.46701e-13)
(-2.36209e-09 0.0058813 8.16624e-14)
(-2.36042e-09 0.0058837 8.14386e-14)
(-2.36467e-09 0.00589354 1.46742e-13)
(-2.37003e-09 0.00590437 1.49262e-13)
(-2.37523e-09 0.0059152 1.46811e-13)
(-2.37965e-09 0.00592503 8.1564e-14)
(-2.3778e-09 0.00592744 8.15129e-14)
(-2.3822e-09 0.00593728 1.46675e-13)
(-2.38743e-09 0.00594811 1.49305e-13)
(-2.39275e-09 0.00595893 1.46768e-13)
(-2.39707e-09 0.00596877 8.15873e-14)
(-2.39531e-09 0.00597117 8.14928e-14)
(-2.39963e-09 0.00598101 1.46678e-13)
(-2.40494e-09 0.00599184 1.493e-13)
(-2.41017e-09 0.00600267 1.46753e-13)
(-2.41457e-09 0.00601251 8.16013e-14)
(-2.41273e-09 0.00601491 8.14633e-14)
(-2.41714e-09 0.00602475 1.4671e-13)
(-2.42234e-09 0.00603558 1.49246e-13)
(-2.4277e-09 0.0060464 1.46809e-13)
(-2.43196e-09 0.00605624 8.15209e-14)
(-2.43028e-09 0.00605865 8.15554e-14)
(-2.4345e-09 0.00606849 1.46589e-13)
(-2.43994e-09 0.00607931 1.49381e-13)
(-2.44501e-09 0.00609014 1.46634e-13)
(-2.44961e-09 0.00609998 8.17227e-14)
(-2.44752e-09 0.00610238 8.13056e-14)
(-2.45223e-09 0.00611222 1.46882e-13)
(-2.45708e-09 0.00612305 1.49018e-13)
(-2.46286e-09 0.00613388 1.47058e-13)
(-2.46661e-09 0.00614371 8.12038e-14)
(-2.46554e-09 0.00614612 8.1927e-14)
(-2.46903e-09 0.00615596 1.46168e-13)
(-2.47534e-09 0.00616679 1.50599e-13)
(-2.47945e-09 0.00617771 1.50654e-13)
(-2.48577e-09 0.00618855 1.46296e-13)
(-2.48926e-09 0.00619838 8.2047e-14)
(-2.48818e-09 0.00620079 8.1135e-14)
(-2.49194e-09 0.00621063 1.47019e-13)
(-2.49771e-09 0.00622146 1.49057e-13)
(-2.50257e-09 0.00623228 1.47005e-13)
(-2.50727e-09 0.00624212 8.14148e-14)
(-2.50519e-09 0.00624452 8.16522e-14)
(-2.50979e-09 0.00625436 1.4658e-13)
(-2.51486e-09 0.00626519 1.49412e-13)
(-2.5203e-09 0.00627602 1.46698e-13)
(-2.52452e-09 0.00628586 8.16625e-14)
(-2.52284e-09 0.00628826 8.14401e-14)
(-2.5271e-09 0.0062981 1.4675e-13)
(-2.53245e-09 0.00630893 1.49261e-13)
(-2.53766e-09 0.00631976 1.46815e-13)
(-2.54207e-09 0.00632959 8.15568e-14)
(-2.54023e-09 0.006332 8.15237e-14)
(-2.54462e-09 0.00634184 1.46672e-13)
(-2.54987e-09 0.00635266 1.49317e-13)
(-2.55516e-09 0.00636349 1.46756e-13)
(-2.5595e-09 0.00637333 8.15992e-14)
(-2.55772e-09 0.00637573 8.1481e-14)
(-2.56207e-09 0.00638557 1.46703e-13)
(-2.56734e-09 0.0063964 1.49279e-13)
(-2.57262e-09 0.00640723 1.46782e-13)
(-2.57697e-09 0.00641706 8.15664e-14)
(-2.57519e-09 0.00641947 8.15081e-14)
(-2.57952e-09 0.00642931 1.46667e-13)
(-2.58482e-09 0.00644014 1.49307e-13)
(-2.59007e-09 0.00645096 1.4674e-13)
(-2.59446e-09 0.0064608 8.16033e-14)
(-2.59262e-09 0.00646321 8.14599e-14)
(-2.59703e-09 0.00647304 1.46715e-13)
(-2.60224e-09 0.00648387 1.4924e-13)
(-2.60759e-09 0.0064947 1.46808e-13)
(-2.61185e-09 0.00650454 8.15141e-14)
(-2.61017e-09 0.00650694 8.15598e-14)
(-2.61439e-09 0.00651678 1.46589e-13)
(-2.61983e-09 0.00652761 1.49381e-13)
(-2.6249e-09 0.00653844 1.46628e-13)
(-2.6295e-09 0.00654827 8.17199e-14)
(-2.62741e-09 0.00655068 8.13071e-14)
(-2.63211e-09 0.00656052 1.46884e-13)
(-2.63697e-09 0.00657134 1.49016e-13)
(-2.64275e-09 0.00658217 1.47054e-13)
(-2.6465e-09 0.00659201 8.11995e-14)
(-2.64543e-09 0.00659441 8.19302e-14)
(-2.64892e-09 0.00660425 1.4617e-13)
(-2.65523e-09 0.00661509 1.50599e-13)
(-2.65934e-09 0.00662601 1.50649e-13)
(-2.66566e-09 0.00663684 1.4629e-13)
(-2.66915e-09 0.00664668 8.2041e-14)
(-2.66807e-09 0.00664908 8.11364e-14)
(-2.67183e-09 0.00665892 1.47017e-13)
(-2.6776e-09 0.00666975 1.49054e-13)
(-2.68246e-09 0.00668058 1.46997e-13)
(-2.68716e-09 0.00669041 8.14107e-14)
(-2.68508e-09 0.00669282 8.1652e-14)
(-2.68967e-09 0.00670266 1.46581e-13)
(-2.69475e-09 0.00671349 1.49407e-13)
(-2.70019e-09 0.00672431 1.46694e-13)
(-2.7044e-09 0.00673415 8.16554e-14)
(-2.70273e-09 0.00673656 8.14439e-14)
(-2.70698e-09 0.00674639 1.46746e-13)
(-2.71234e-09 0.00675722 1.49261e-13)