/*--------------------------------*- C++ -*----------------------------------*\
| =========                 |                                                 |
| \\      /  F ield         | OpenFOAM: The Open Source CFD Toolbox           |
|  \\    /   O peration     | Version:  2206                                  |
|   \\  /    A nd           | Website:  www.openfoam.com                      |
|    \\/     M anipulation  |                                                 |
\*---------------------------------------------------------------------------*/
FoamFile
{
    version     2.0;
    format      ascii;
    arch        "LSB;label=32;scalar=64";
    class       surfaceScalarField;
    location    "263";
    object      phi;
}
// * * * * * * * * * * * * * * * * * * * * * * * * * * * * * * * * * * * * * //

dimensions      [0 3 -1 0 0 0 0];

oriented        oriented;

internalField   nonuniform List<scalar> 
94990
(
-7.91101e-25
1.09793e-24
-2.133e-24
1.35563e-24
-5.59509e-24
3.46956e-24
-1.06842e-23
5.10798e-24
-1.45927e-23
3.8674e-24
-1.87804e-23
4.21311e-24
-2.74945e-23
8.69193e-24
-3.8273e-23
1.07783e-23
-5.02831e-23
1.20042e-23
-5.82157e-23
7.93855e-24
-6.64165e-23
8.19402e-24
-8.20526e-23
1.56432e-23
-1.00001e-22
1.79416e-23
-1.18939e-22
1.89448e-23
-1.30889e-22
1.19439e-23
-1.43126e-22
1.22425e-23
-1.65667e-22
2.25366e-23
-1.90813e-22
2.51515e-23
-2.16647e-22
2.58293e-23
-2.32653e-22
1.60113e-23
-2.48879e-22
1.62226e-23
-2.78413e-22
2.95375e-23
-3.10889e-22
3.24733e-23
-3.45132e-22
3.42472e-23
-3.79708e-22
3.45726e-23
-4.00684e-22
2.09797e-23
-4.22011e-22
2.13246e-23
-4.60094e-22
3.80858e-23
-5.0141e-22
4.13138e-23
-5.42805e-22
4.1398e-23
-5.67866e-22
2.50591e-23
-5.93178e-22
2.53144e-23
-6.38209e-22
4.50297e-23
-6.86683e-22
4.84758e-23
-7.35012e-22
4.83277e-23
-7.64087e-22
2.90777e-23
-7.93439e-22
2.93503e-23
-8.45378e-22
5.19408e-23
-9.0104e-22
5.56605e-23
-9.5628e-22
5.52418e-23
-9.89387e-22
3.31064e-23
-1.02277e-21
3.33801e-23
-1.08162e-21
5.88549e-23
-1.14446e-21
6.28443e-23
-1.20662e-21
6.21553e-23
-1.24376e-21
3.71371e-23
-1.28116e-21
3.74074e-23
-1.34694e-21
6.57721e-23
-1.41696e-21
7.00246e-23
-1.48603e-21
6.90724e-23
-1.5272e-21
4.11641e-23
-1.56863e-21
4.14385e-23
-1.64132e-21
7.26856e-23
-1.71853e-21
7.72085e-23
-1.79452e-21
7.59862e-23
-1.83971e-21
4.51941e-23
-1.88518e-21
4.5467e-23
-1.96478e-21
7.96011e-23
-2.04917e-21
8.4391e-23
-2.13207e-21
8.29002e-23
-2.18129e-21
4.92254e-23
-2.23078e-21
4.94923e-23
-2.31731e-21
8.65224e-23
-2.40887e-21
9.15641e-23
-2.4987e-21
8.98288e-23
-2.55193e-21
5.32351e-23
-2.60548e-21
5.35491e-23
-2.69888e-21
9.33986e-23
-2.79768e-21
9.88011e-23
-2.89435e-21
9.66673e-23
-2.95172e-21
5.7372e-23
-3.00916e-21
5.74364e-23
-3.10974e-21
1.00579e-22
-3.21615e-21
1.06417e-22
-3.32434e-21
1.08183e-22
-3.42996e-21
1.05621e-22
-3.49215e-21
6.21871e-23
-3.55484e-21
6.26933e-23
-3.66375e-21
1.08915e-22
-3.77872e-21
1.1497e-22
-3.89097e-21
1.1225e-22
-3.95735e-21
6.63779e-23
-4.02395e-21
6.6597e-23
-4.13987e-21
1.15923e-22
-4.26196e-21
1.22085e-22
-4.38117e-21
1.19215e-22
-4.45154e-21
7.03697e-23
-4.52219e-21
7.06539e-23
-4.64501e-21
1.22817e-22
-4.77429e-21
1.29282e-22
-4.90041e-21
1.26119e-22
-4.97482e-21
7.44074e-23
-5.0495e-21
7.46767e-23
-5.17923e-21
1.29737e-22
-5.31569e-21
1.36461e-22
-5.44873e-21
1.33037e-22
-5.52717e-21
7.84343e-23
-5.60587e-21
7.87076e-23
-5.74253e-21
1.36651e-22
-5.88617e-21
1.43643e-22
-6.02612e-21
1.39952e-22
-6.10858e-21
8.24631e-23
-6.19132e-21
8.27378e-23
-6.33489e-21
1.43565e-22
-6.48571e-21
1.50829e-22
-6.63258e-21
1.46863e-22
-6.71908e-21
8.64986e-23
-6.80583e-21
8.67581e-23
-6.95633e-21
1.50492e-22
-7.11432e-21
1.57993e-22
-7.26812e-21
1.53803e-22
-7.35861e-21
9.04926e-23
-7.44945e-21
9.08361e-23
-7.60679e-21
1.5734e-22
-7.77206e-21
1.65269e-22
-7.93265e-21
1.60588e-22
-8.02735e-21
9.47031e-23
-8.12198e-21
9.46282e-23
-8.28667e-21
1.64693e-22
-8.45981e-21
1.73142e-22
-8.63472e-21
1.74909e-22
-8.80446e-21
1.69734e-22
-8.90384e-21
9.93797e-23
-9.00386e-21
1.00024e-22
-9.1767e-21
1.72837e-22
-9.35813e-21
1.81438e-22
-9.53433e-21
1.76192e-22
-9.63799e-21
1.03665e-22
-9.74185e-21
1.03855e-22
-9.92174e-21
1.79896e-22
-1.01103e-20
1.88514e-22
-1.02934e-20
1.83185e-22
-1.04011e-20
1.07637e-22
-1.0509e-20
1.07926e-22
-1.06958e-20
1.8678e-22
-1.08915e-20
1.95719e-22
-1.10816e-20
1.90083e-22
-1.11933e-20
1.11678e-22
-1.13052e-20
1.11946e-22
-1.14989e-20
1.93702e-22
-1.17018e-20
2.02896e-22
-1.18988e-20
1.97002e-22
-1.20145e-20
1.15704e-22
-1.21305e-20
1.15978e-22
-1.23311e-20
2.00616e-22
-1.25412e-20
2.1008e-22
-1.27451e-20
2.03916e-22
-1.28648e-20
1.19735e-22
-1.29848e-20
1.20006e-22
-1.31924e-20
2.07532e-22
-1.34096e-20
2.1726e-22
-1.36205e-20
2.10833e-22
-1.37442e-20
1.23761e-22
-1.38683e-20
1.24039e-22
-1.40827e-20
2.14443e-22
-1.43072e-20
2.24448e-22
-1.45249e-20
2.1774e-22
-1.46527e-20
1.27801e-22
-1.47808e-20
1.28053e-22
-1.50021e-20
2.21378e-22
-1.52337e-20
2.31603e-22
-1.54584e-20
2.24693e-22
-1.55902e-20
1.31778e-22
-1.57224e-20
1.32155e-22
-1.59506e-20
2.28194e-22
-1.61895e-20
2.38922e-22
-1.64209e-20
2.31419e-22
-1.6557e-20
1.3607e-22
-1.66928e-20
1.35841e-22
-1.69285e-20
2.35738e-22
-1.71756e-20
2.4708e-22
-1.74245e-20
2.48848e-22
-1.76653e-20
2.40778e-22
-1.78058e-20
1.40593e-22
-1.79472e-20
1.4139e-22
-1.81909e-20
2.43668e-22
-1.8446e-20
2.5509e-22
-1.8693e-20
2.47046e-22
-1.8838e-20
1.44982e-22
-1.89832e-20
1.45142e-22
-1.9234e-20
2.50785e-22
-1.94961e-20
2.62125e-22
-1.97501e-20
2.5407e-22
-1.98991e-20
1.48933e-22
-2.00483e-20
1.49228e-22
-2.0306e-20
2.57658e-22
-2.05753e-20
2.69338e-22
-2.08363e-20
2.60962e-22
-2.09892e-20
1.52978e-22
-2.11425e-20
1.53246e-22
-2.14071e-20
2.64582e-22
-2.16836e-20
2.76514e-22
-2.19515e-20
2.67881e-22
-2.21085e-20
1.57005e-22
-2.22657e-20
1.57277e-22
-2.25372e-20
2.71496e-22
-2.28209e-20
2.83696e-22
-2.30957e-20
2.74798e-22
-2.32568e-20
1.61032e-22
-2.34181e-20
1.61309e-22
-2.36965e-20
2.78407e-22
-2.39874e-20
2.90885e-22
-2.42691e-20
2.81703e-22
-2.44341e-20
1.65074e-22
-2.45995e-20
1.6532e-22
-2.48848e-20
2.85347e-22
-2.51828e-20
2.98032e-22
-2.54715e-20
2.88667e-22
-2.56405e-20
1.69036e-22
-2.581e-20
1.69442e-22
-2.61021e-20
2.92135e-22
-2.64075e-20
3.0539e-22
-2.67029e-20
2.9534e-22
-2.68763e-20
1.73401e-22
-2.70493e-20
1.73034e-22
-2.73491e-20
2.99851e-22
-2.76629e-20
3.13805e-22
-2.79785e-20
3.15573e-22
-2.82834e-20
3.04891e-22
-2.84612e-20
1.77786e-22
-2.86399e-20
1.78721e-22
-2.89475e-20
3.07589e-22
-2.92691e-20
3.21558e-22
-2.95801e-20
3.10988e-22
-2.97623e-20
1.8227e-22
-2.99447e-20
1.824e-22
-3.02595e-20
3.14759e-22
-3.0588e-20
3.28553e-22
-3.09061e-20
3.18039e-22
-3.10923e-20
1.862e-22
-3.12788e-20
1.86502e-22
-3.16004e-20
3.21621e-22
-3.19362e-20
3.35774e-22
-3.22611e-20
3.24926e-22
-3.24513e-20
1.90249e-22
-3.26419e-20
1.90516e-22
-3.29704e-20
3.28547e-22
-3.33134e-20
3.42949e-22
-3.36452e-20
3.31847e-22
-3.38395e-20
1.94274e-22
-3.4034e-20
1.94548e-22
-3.43695e-20
3.3546e-22
-3.47196e-20
3.50133e-22
-3.50584e-20
3.3876e-22
-3.52567e-20
1.98305e-22
-3.54553e-20
1.98576e-22
-3.57976e-20
3.42377e-22
-3.6155e-20
3.57313e-22
-3.65006e-20
3.45678e-22
-3.6703e-20
2.02331e-22
-3.69056e-20
2.0261e-22
-3.72549e-20
3.49285e-22
-3.76194e-20
3.64504e-22
-3.79719e-20
3.52581e-22
-3.81783e-20
2.06377e-22
-3.83849e-20
2.06616e-22
-3.87412e-20
3.56232e-22
-3.91128e-20
3.71642e-22
-3.94724e-20
3.59556e-22
-3.96827e-20
2.10323e-22
-3.98934e-20
2.1076e-22
-4.02564e-20
3.62989e-22
-4.06355e-20
3.79042e-22
-4.10017e-20
3.66172e-22
-4.12164e-20
2.14768e-22
-4.14307e-20
2.14248e-22
-4.18016e-20
3.70895e-22
-4.21893e-20
3.87743e-22
-4.25788e-20
3.89511e-22
-4.29548e-20
3.75936e-22
-4.31738e-20
2.19e-22
-4.33938e-20
2.20088e-22
-4.37723e-20
3.78421e-22
-4.41675e-20
3.95211e-22
-4.45493e-20
3.81842e-22
-4.47729e-20
2.23588e-22
-4.49966e-20
2.23686e-22
-4.53822e-20
3.85649e-22
-4.57844e-20
4.02164e-22
-4.61733e-20
3.88924e-22
-4.64008e-20
2.27495e-22
-4.66286e-20
2.27804e-22
-4.70211e-20
3.92499e-22
-4.74305e-20
4.09394e-22
-4.78263e-20
3.95805e-22
-4.80579e-20
2.3155e-22
-4.82897e-20
2.31815e-22
-4.86891e-20
3.99427e-22
-4.91057e-20
4.16566e-22
-4.95084e-20
4.02726e-22
-4.9744e-20
2.35574e-22
-4.99798e-20
2.35847e-22
-5.03862e-20
4.06341e-22
-5.08099e-20
4.23748e-22
-5.12196e-20
4.09643e-22
-5.14592e-20
2.39601e-22
-5.1699e-20
2.39881e-22
-5.21123e-20
4.13249e-22
-5.25432e-20
4.30941e-22
-5.29598e-20
4.16544e-22
-5.32034e-20
2.4365e-22
-5.34473e-20
2.43883e-22
-5.38675e-20
4.20202e-22
-5.43056e-20
4.38071e-22
-5.47291e-20
4.2353e-22
-5.49767e-20
2.47581e-22
-5.52247e-20
2.48047e-22
-5.56517e-20
4.26931e-22
-5.60972e-20
4.4551e-22
-5.65273e-20
4.30093e-22
-5.67794e-20
2.52098e-22
-5.70308e-20
2.5144e-22
-5.74658e-20
4.35008e-22
-5.79203e-20
4.54468e-22
-5.83765e-20
4.56236e-22
-5.88166e-20
4.40049e-22
-5.90728e-20
2.56192e-22
-5.93302e-20
2.57419e-22
-5.97725e-20
4.42342e-22
-6.02342e-20
4.61678e-22
-6.068e-20
4.45783e-22
-6.09409e-20
2.60876e-22
-6.12018e-20
2.60944e-22
-6.16514e-20
4.49623e-22
-6.212e-20
4.68593e-22
-6.25729e-20
4.52893e-22
-6.28377e-20
2.64762e-22
-6.31028e-20
2.65077e-22
-6.35592e-20
4.56462e-22
-6.4035e-20
4.7583e-22
-6.44948e-20
4.59768e-22
-6.47636e-20
2.68821e-22
-6.50327e-20
2.69085e-22
-6.54961e-20
4.63393e-22
-6.59791e-20
4.83001e-22
-6.64458e-20
4.66692e-22
-6.67186e-20
2.72844e-22
-6.69918e-20
2.73119e-22
-6.74621e-20
4.70304e-22
-6.79523e-20
4.90186e-22
-6.84259e-20
4.73604e-22
-6.87027e-20
2.76875e-22
-6.89799e-20
2.77146e-22
-6.94571e-20
4.77222e-22
-6.99545e-20
4.97365e-22
-7.0435e-20
4.80523e-22
-7.07159e-20
2.809e-22
-7.09971e-20
2.81182e-22
-7.14812e-20
4.84128e-22
-7.19858e-20
5.0456e-22
-7.24732e-20
4.87421e-22
-7.27581e-20
2.84952e-22
-7.30433e-20
2.85179e-22
-7.35344e-20
4.91087e-22
-7.40461e-20
5.11682e-22
-7.45405e-20
4.9442e-22
-7.48294e-20
2.88867e-22
-7.51187e-20
2.89366e-22
-7.56165e-20
4.97785e-22
-7.61357e-20
5.19163e-22
-7.66366e-20
5.00924e-22
-7.69301e-20
2.93465e-22
-7.72227e-20
2.92654e-22
-7.77288e-20
5.06053e-22
-7.82572e-20
5.28407e-22
-7.87874e-20
5.30174e-22
-7.92985e-20
5.11093e-22
-7.95959e-20
2.97406e-22
-7.98946e-20
2.98785e-22
-8.04078e-20
5.13173e-22
-8.09431e-20
5.35331e-22
-8.14598e-20
5.16637e-22
-8.1762e-20
3.02194e-22
-8.20642e-20
3.0223e-22
-8.25847e-20
5.20512e-22
-8.31269e-20
5.42203e-22
-8.36507e-20
5.23778e-22
-8.39568e-20
3.06058e-22
-8.42631e-20
3.0638e-22
-8.47905e-20
5.2734e-22
-8.53399e-20
5.49449e-22
-8.58706e-20
5.30647e-22
-8.61807e-20
3.10121e-22
-8.64911e-20
3.10384e-22
-8.70254e-20
5.34272e-22
-8.7582e-20
5.56619e-22
-8.81195e-20
5.37571e-22
-8.84337e-20
3.14145e-22
-8.87481e-20
3.14417e-22
-8.92893e-20
5.41186e-22
-8.98531e-20
5.63801e-22
-9.03976e-20
5.44488e-22
-9.07157e-20
3.1817e-22
-9.10342e-20
3.18453e-22
-9.15823e-20
5.48092e-22
-9.21533e-20
5.70996e-22
-9.27047e-20
5.51384e-22
-9.30269e-20
3.22225e-22
-9.33493e-20
3.22446e-22
-9.39044e-20
5.55056e-22
-9.44825e-20
5.78111e-22
-9.50409e-20
5.58393e-22
-9.5367e-20
3.26125e-22
-9.56937e-20
3.26653e-22
-9.62554e-20
5.61726e-22
-9.6841e-20
5.8563e-22
-9.74059e-20
5.64845e-22
-9.77367e-20
3.30796e-22
-9.80665e-20
3.29847e-22
-9.86367e-20
5.70166e-22
-9.92318e-20
5.95132e-22
-9.98287e-20
5.96899e-22
-1.00404e-19
5.75206e-22
-1.00739e-19
3.34599e-22
-1.01075e-19
3.36116e-22
-1.01652e-19
5.77094e-22
-1.02254e-19
6.01798e-22
-1.02834e-19
5.80579e-22
-1.03174e-19
3.39481e-22
-1.03513e-19
3.39488e-22
-1.04098e-19
5.84486e-22
-1.04706e-19
6.08632e-22
-1.05294e-19
5.87748e-22
-1.05637e-19
3.43325e-22
-1.05981e-19
3.43653e-22
-1.06572e-19
5.91302e-22
-1.07188e-19
6.15886e-22
-1.07783e-19
5.9461e-22
-1.0813e-19
3.47393e-22
-1.08478e-19
3.47654e-22
-1.09076e-19
5.98238e-22
-1.09699e-19
6.23053e-22
-1.10301e-19
6.01537e-22
-1.10652e-19
3.51414e-22
-1.11004e-19
3.51689e-22
-1.11609e-19
6.05148e-22
-1.12239e-19
6.30239e-22
-1.12848e-19
6.08449e-22
-1.13203e-19
3.55446e-22
-1.13559e-19
3.55716e-22
-1.14171e-19
6.12066e-22
-1.14808e-19
6.37418e-22
-1.15424e-19
6.15368e-22
-1.15783e-19
3.59469e-22
-1.16143e-19
3.59753e-22
-1.16762e-19
6.1897e-22
-1.17406e-19
6.44616e-22
-1.18029e-19
6.22262e-22
-1.18392e-19
3.63528e-22
-1.18756e-19
3.63742e-22
-1.19382e-19
6.25941e-22
-1.20034e-19
6.51721e-22
-1.20663e-19
6.29283e-22
-1.2103e-19
3.67411e-22
-1.21398e-19
3.67972e-22
-1.22031e-19
6.3258e-22
-1.2269e-19
6.59283e-22
-1.23326e-19
6.35676e-22
-1.23698e-19
3.72163e-22
-1.24069e-19
3.71061e-22
-1.2471e-19
6.4121e-22
-1.25379e-19
6.6907e-22
-1.2605e-19
6.70837e-22
-1.26696e-19
6.46251e-22
-1.27072e-19
3.75813e-22
-1.2745e-19
3.77483e-22
-1.28098e-19
6.47925e-22
-1.28773e-19
6.75451e-22
-1.29424e-19
6.51433e-22
-1.29805e-19
3.808e-22
-1.30186e-19
3.80774e-22
-1.30841e-19
6.55375e-22
-1.31524e-19
6.82242e-22
-1.32182e-19
6.58633e-22
-1.32567e-19
3.84621e-22
-1.32952e-19
3.84955e-22
-1.33614e-19
6.6218e-22
-1.34304e-19
6.89505e-22
-1.34969e-19
6.65489e-22
-1.35358e-19
3.88693e-22
-1.35747e-19
3.88953e-22
-1.36416e-19
6.69118e-22
-1.37112e-19
6.96671e-22
-1.37785e-19
6.72416e-22
-1.38178e-19
3.92715e-22
-1.38571e-19
3.92987e-22
-1.39247e-19
6.7603e-22
-1.3995e-19
7.03854e-22
-1.4063e-19
6.79333e-22
-1.41027e-19
3.96739e-22
-1.41424e-19
3.97024e-22
-1.42106e-19
6.82934e-22
-1.42818e-19
7.11052e-22
-1.43504e-19
6.86225e-22
-1.43905e-19
4.00801e-22
-1.44306e-19
4.01009e-22
-1.44995e-19
6.8991e-22
-1.45714e-19
7.1815e-22
-1.46407e-19
6.93257e-22
-1.46812e-19
4.04669e-22
-1.47217e-19
4.05259e-22
-1.47913e-19
6.96522e-22
-1.48639e-19
7.2575e-22
-1.49339e-19
6.99597e-22
-1.49748e-19
4.09494e-22
-1.50156e-19
4.08253e-22
-1.50862e-19
7.05323e-22
-1.51598e-19
7.35795e-22
-1.52335e-19
7.37562e-22
-1.53045e-19
7.10364e-22
-1.53458e-19
4.13005e-22
-1.53873e-19
4.14814e-22
-1.54585e-19
7.11846e-22
-1.55327e-19
7.41918e-22
-1.56042e-19
7.15374e-22
-1.56461e-19
4.18087e-22
-1.56879e-19
4.18033e-22
-1.57598e-19
7.19349e-22
-1.58347e-19
7.48671e-22
-1.59069e-19
7.22602e-22
-1.59491e-19
4.21888e-22
-1.59913e-19
4.22228e-22
-1.60639e-19
7.26143e-22
-1.61395e-19
7.55942e-22
-1.62125e-19
7.29453e-22
-1.62551e-19
4.25965e-22
-1.62977e-19
4.26223e-22
-1.6371e-19
7.33083e-22
-1.64473e-19
7.63106e-22
-1.6521e-19
7.36381e-22
-1.6564e-19
4.29984e-22
-1.6607e-19
4.3026e-22
-1.6681e-19
7.39992e-22
-1.6758e-19
7.70293e-22
-1.68323e-19
7.43293e-22
-1.68757e-19
4.34017e-22
-1.69192e-19
4.34285e-22
-1.69939e-19
7.46911e-22
-1.70716e-19
7.7747e-22
-1.71466e-19
7.50214e-22
-1.71904e-19
4.38038e-22
-1.72343e-19
4.38325e-22
-1.73096e-19
7.53812e-22
-1.73881e-19
7.84672e-22
-1.74638e-19
7.57103e-22
-1.7508e-19
4.42103e-22
-1.75523e-19
4.42305e-22
-1.76283e-19
7.60796e-22
-1.77075e-19
7.9176e-22
-1.77839e-19
7.64146e-22
-1.78285e-19
4.45956e-22
-1.78732e-19
4.46578e-22
-1.79499e-19
7.67376e-22
-1.80299e-19
7.99403e-22
-1.81069e-19
7.70429e-22
-1.8152e-19
4.50861e-22
-1.81969e-19
4.49467e-22
-1.82746e-19
7.76368e-22
-1.83556e-19
8.09733e-22
-1.84367e-19
8.11501e-22
-1.85148e-19
7.81408e-22
-1.85603e-19
4.54219e-22
-1.86059e-19
4.56181e-22
-1.86842e-19
7.82678e-22
-1.87657e-19
8.15571e-22
-1.88443e-19
7.86229e-22
-1.88903e-19
4.59405e-22
-1.89362e-19
4.59319e-22
-1.90152e-19
7.90239e-22
-1.90975e-19
8.22282e-22
-1.91768e-19
7.93487e-22
-1.92231e-19
4.63184e-22
-1.92695e-19
4.63531e-22
-1.93492e-19
7.97021e-22
-1.94321e-19
8.29561e-22
-1.95122e-19
8.00332e-22
-1.95589e-19
4.67265e-22
-1.96056e-19
4.67523e-22
-1.9686e-19
8.03963e-22
-1.97697e-19
8.36724e-22
-1.98504e-19
8.0726e-22
-1.98976e-19
4.71285e-22
-1.99447e-19
4.71557e-22
-2.00258e-19
8.10875e-22
-2.01102e-19
8.43906e-22
-2.01916e-19
8.14178e-22
-2.02392e-19
4.75308e-22
-2.02867e-19
4.75596e-22
-2.03685e-19
8.17776e-22
-2.04536e-19
8.51108e-22
-2.05357e-19
8.21065e-22
-2.05836e-19
4.79376e-22
-2.06316e-19
4.79572e-22
-2.07141e-19
8.24765e-22
-2.07999e-19
8.58189e-22
-2.08827e-19
8.2812e-22
-2.0931e-19
4.83214e-22
-2.09794e-19
4.83865e-22
-2.10625e-19
8.31317e-22
-2.11491e-19
8.6587e-22
-2.12326e-19
8.34349e-22
-2.12814e-19
4.88192e-22
-2.13301e-19
4.8666e-22
-2.14141e-19
8.40481e-22
-2.15018e-19
8.76458e-22
-2.15896e-19
8.78226e-22
-2.16741e-19
8.45521e-22
-2.17233e-19
4.91412e-22
-2.17726e-19
4.93511e-22
-2.18573e-19
8.46599e-22
-2.19455e-19
8.82038e-22
-2.20305e-19
8.5017e-22
-2.20802e-19
4.96693e-22
-2.21298e-19
4.96577e-22
-2.22152e-19
8.54212e-22
-2.23041e-19
8.88711e-22
-2.23899e-19
8.57457e-22
-2.24399e-19
5.00451e-22
-2.249e-19
5.00804e-22
-2.25761e-19
8.60983e-22
-2.26657e-19
8.95998e-22
-2.27521e-19
8.64295e-22
-2.28026e-19
5.04536e-22
-2.2853e-19
5.04792e-22
-2.29398e-19
8.67928e-22
-2.30302e-19
9.03158e-22
-2.31173e-19
8.71226e-22
-2.31681e-19
5.08554e-22
-2.3219e-19
5.0883e-22
-2.33065e-19
8.74837e-22
-2.33975e-19
9.10346e-22
-2.34854e-19
8.78137e-22
-2.35366e-19
5.12587e-22
-2.35879e-19
5.12856e-22
-2.36761e-19
8.81756e-22
-2.37678e-19
9.17523e-22
-2.38563e-19
8.85059e-22
-2.3908e-19
5.16607e-22
-2.39597e-19
5.16897e-22
-2.40485e-19
8.88655e-22
-2.4141e-19
9.24727e-22
-2.42302e-19
8.91943e-22
-2.42823e-19
5.20679e-22
-2.43344e-19
5.20868e-22
-2.44239e-19
8.9565e-22
-2.45171e-19
9.318e-22
-2.4607e-19
8.99009e-22
-2.46595e-19
5.245e-22
-2.4712e-19
5.25183e-22
-2.48022e-19
9.02172e-22
-2.48961e-19
9.39523e-22
-2.49867e-19
9.05181e-22
-2.50396e-19
5.29558e-22
-2.50924e-19
5.27874e-22
-2.51836e-19
9.11525e-22
-2.52786e-19
9.50397e-22
-2.53738e-19
9.52164e-22
-2.54655e-19
9.16566e-22
-2.55187e-19
5.32626e-22
-2.55722e-19
5.34878e-22
-2.5664e-19
9.1743e-22
-2.57595e-19
9.55691e-22
-2.58516e-19
9.21024e-22
-2.59054e-19
5.38011e-22
-2.59592e-19
5.37863e-22
-2.60517e-19
9.25102e-22
-2.6148e-19
9.62321e-22
-2.62408e-19
9.28342e-22
-2.6295e-19
5.41747e-22
-2.63492e-19
5.42106e-22
-2.64424e-19
9.31861e-22
-2.65393e-19
9.69617e-22
-2.66329e-19
9.35174e-22
-2.66874e-19
5.45837e-22
-2.6742e-19
5.46092e-22
-2.68359e-19
9.38808e-22
-2.69336e-19
9.76776e-22
-2.70278e-19
9.42105e-22
-2.70828e-19
5.49855e-22
-2.71378e-19
5.50128e-22
-2.72324e-19
9.4572e-22
-2.73308e-19
9.83959e-22
-2.74257e-19
9.49023e-22
-2.74811e-19
5.53878e-22
-2.75365e-19
5.54168e-22
-2.76318e-19
9.52619e-22
-2.77309e-19
9.91164e-22
-2.78265e-19
9.55906e-22
-2.78823e-19
5.57952e-22
-2.79381e-19
5.58135e-22
-2.8034e-19
9.59619e-22
-2.81339e-19
9.98228e-22
-2.82301e-19
9.62983e-22
-2.82863e-19
5.61758e-22
-2.83426e-19
5.62471e-22
-2.84392e-19
9.66113e-22
-2.85398e-19
1.00599e-21
-2.86367e-19
9.69102e-22
-2.86934e-19
5.66889e-22
-2.87499e-19
5.65067e-22
-2.88475e-19
9.75638e-22
-2.89492e-19
1.01712e-21
-2.90511e-19
1.01889e-21
-2.91491e-19
9.80679e-22
-2.92061e-19
5.69818e-22
-2.92633e-19
5.72209e-22
-2.93615e-19
9.81351e-22
-2.94637e-19
1.02216e-21
-2.95622e-19
9.84965e-22
-2.96197e-19
5.75299e-22
-2.96772e-19
5.75121e-22
-2.97761e-19
9.89076e-22
-2.9879e-19
1.02875e-21
-2.99782e-19
9.92311e-22
-3.00361e-19
5.79014e-22
-3.00941e-19
5.79379e-22
-3.01936e-19
9.95824e-22
-3.02973e-19
1.03605e-21
-3.03972e-19
9.99137e-22
-3.04555e-19
5.83108e-22
-3.05138e-19
5.83361e-22
-3.06141e-19
1.00277e-21
-3.07184e-19
1.04321e-21
-3.0819e-19
1.00607e-21
-3.08777e-19
5.87123e-22
-3.09365e-19
5.87401e-22
-3.10374e-19
1.00968e-21
-3.11425e-19
1.0504e-21
-3.12438e-19
1.01298e-21
-3.13029e-19
5.91158e-22
-3.1362e-19
5.91425e-22
-3.14637e-19
1.0166e-21
-3.15695e-19
1.05757e-21
-3.16714e-19
1.0199e-21
-3.1731e-19
5.95176e-22
-3.17905e-19
5.95469e-22
-3.18929e-19
1.0235e-21
-3.19993e-19
1.06478e-21
-3.2102e-19
1.02678e-21
-3.21619e-19
5.99254e-22
-3.22219e-19
5.99431e-22
-3.23249e-19
1.0305e-21
-3.24321e-19
1.07184e-21
-3.25355e-19
1.03387e-21
-3.25958e-19
6.03044e-22
-3.26562e-19
6.03789e-22
-3.27599e-19
1.03697e-21
-3.28678e-19
1.07964e-21
-3.29718e-19
1.03993e-21
-3.30327e-19
6.08256e-22
-3.30933e-19
6.0628e-22
-3.3198e-19
1.04668e-21
-3.33071e-19
1.09106e-21
-3.34164e-19
1.09283e-21
-3.35215e-19
1.05172e-21
-3.35826e-19
6.11032e-22
-3.3644e-19
6.13576e-22
-3.37492e-19
1.05218e-21
-3.38588e-19
1.09581e-21
-3.39644e-19
1.05582e-21
-3.4026e-19
6.16617e-22
-3.40877e-19
6.16408e-22
-3.41937e-19
1.05997e-21
-3.43039e-19
1.10236e-21
-3.44102e-19
1.0632e-21
-3.44723e-19
6.2031e-22
-3.45343e-19
6.20682e-22
-3.4641e-19
1.0667e-21
-3.4752e-19
1.10967e-21
-3.4859e-19
1.07002e-21
-3.49214e-19
6.24408e-22
-3.49839e-19
6.24661e-22
-3.50912e-19
1.07365e-21
-3.52029e-19
1.11683e-21
-3.53106e-19
1.07695e-21
-3.53735e-19
6.28425e-22
-3.54363e-19
6.28698e-22
-3.55444e-19
1.08056e-21
-3.56568e-19
1.12401e-21
-3.57652e-19
1.08387e-21
-3.58284e-19
6.32447e-22
-3.58917e-19
6.3274e-22
-3.60004e-19
1.08746e-21
-3.61136e-19
1.13122e-21
-3.62226e-19
1.09075e-21
-3.62863e-19
6.36527e-22
-3.635e-19
6.36698e-22
-3.64594e-19
1.09447e-21
-3.65732e-19
1.13827e-21
-3.6683e-19
1.09785e-21
-3.6747e-19
6.40302e-22
-3.68111e-19
6.41077e-22
-3.69212e-19
1.10091e-21
-3.70358e-19
1.14611e-21
-3.71462e-19
1.10385e-21
-3.72108e-19
6.45587e-22
-3.72751e-19
6.43473e-22
-3.73862e-19
1.1108e-21
-3.7502e-19
1.15778e-21
-3.7618e-19
1.15955e-21
-3.77295e-19
1.11584e-21
-3.77944e-19
6.48225e-22
-3.78595e-19
6.50907e-22
-3.79711e-19
1.1161e-21
-3.80873e-19
1.16228e-21
-3.81993e-19
1.11976e-21
-3.82647e-19
6.53904e-22
-3.833e-19
6.53666e-22
-3.84424e-19
1.12394e-21
-3.85593e-19
1.16879e-21
-3.8672e-19
1.12717e-21
-3.87378e-19
6.57577e-22
-3.88036e-19
6.57955e-22
-3.89166e-19
1.13066e-21
-3.90342e-19
1.17611e-21
-3.91476e-19
1.13398e-21
-3.92138e-19
6.6168e-22
-3.928e-19
6.61931e-22
-3.93938e-19
1.13762e-21
-3.95121e-19
1.18326e-21
-3.96262e-19
1.14092e-21
-3.96927e-19
6.65694e-22
-3.97593e-19
6.65971e-22
-3.98738e-19
1.14452e-21
-3.99928e-19
1.19045e-21
-4.01076e-19
1.14783e-21
-4.01746e-19
6.69728e-22
-4.02416e-19
6.69995e-22
-4.03567e-19
1.15145e-21
-4.04765e-19
1.19763e-21
-4.0592e-19
1.15475e-21
-4.06594e-19
6.73746e-22
-4.07268e-19
6.7404e-22
-4.08426e-19
1.15834e-21
-4.09631e-19
1.20484e-21
-4.10792e-19
1.16162e-21
-4.1147e-19
6.7783e-22
-4.12148e-19
6.77994e-22
-4.13314e-19
1.16536e-21
-4.14525e-19
1.21188e-21
-4.15694e-19
1.16874e-21
-4.16376e-19
6.81589e-22
-4.17058e-19
6.82395e-22
-4.1823e-19
1.17176e-21
-4.1945e-19
1.21976e-21
-4.20624e-19
1.17469e-21
-4.21311e-19
6.86953e-22
-4.21996e-19
6.84687e-22
-4.23178e-19
1.18184e-21
-4.2441e-19
1.23172e-21
-4.25643e-19
1.23349e-21
-4.2683e-19
1.18688e-21
-4.27519e-19
6.89439e-22
-4.28212e-19
6.92274e-22
-4.29399e-19
1.18693e-21
-4.30635e-19
1.23593e-21
-4.31825e-19
1.19061e-21
-4.3252e-19
6.95223e-22
-4.33215e-19
6.94952e-22
-4.3441e-19
1.19483e-21
-4.35653e-19
1.2424e-21
-4.36851e-19
1.19805e-21
-4.37549e-19
6.98873e-22
-4.38249e-19
6.99257e-22
-4.3945e-19
1.20154e-21
-4.407e-19
1.24973e-21
-4.41905e-19
1.20486e-21
-4.42608e-19
7.0298e-22
-4.43311e-19
7.0323e-22
-4.4452e-19
1.2085e-21
-4.45776e-19
1.25688e-21
-4.46988e-19
1.21179e-21
-4.47695e-19
7.06995e-22
-4.48403e-19
7.07268e-22
-4.49618e-19
1.21541e-21
-4.50882e-19
1.26406e-21
-4.52101e-19
1.21871e-21
-4.52812e-19
7.11016e-22
-4.53523e-19
7.11311e-22
-4.54745e-19
1.2223e-21
-4.56017e-19
1.27128e-21
-4.57242e-19
1.22559e-21
-4.57957e-19
7.15103e-22
-4.58673e-19
7.15261e-22
-4.59902e-19
1.22933e-21
-4.6118e-19
1.27831e-21
-4.62413e-19
1.23271e-21
-4.63132e-19
7.18847e-22
-4.63851e-19
7.19682e-22
-4.65087e-19
1.2357e-21
-4.66373e-19
1.28623e-21
-4.67612e-19
1.23861e-21
-4.68336e-19
7.24284e-22
-4.69058e-19
7.2188e-22
-4.70304e-19
1.24595e-21
-4.71603e-19
1.29845e-21
-4.72903e-19
1.30022e-21
-4.74154e-19
1.25099e-21
-4.7488e-19
7.26632e-22
-4.7561e-19
7.29605e-22
-4.76861e-19
1.25086e-21
-4.78163e-19
1.3024e-21
-4.79418e-19
1.25456e-21
-4.8015e-19
7.32511e-22
-4.80883e-19
7.3221e-22
-4.82141e-19
1.2588e-21
-4.8345e-19
1.30883e-21
-4.84712e-19
1.26202e-21
-4.85448e-19
7.3614e-22
-4.86185e-19
7.36531e-22
-4.8745e-19
1.2655e-21
-4.88766e-19
1.31617e-21
-4.90035e-19
1.26882e-21
-4.90776e-19
7.40252e-22
-4.91516e-19
7.405e-22
-4.92789e-19
1.27246e-21
-4.94112e-19
1.32332e-21
-4.95388e-19
1.27576e-21
-4.96132e-19
7.44263e-22
-4.96876e-19
7.44542e-22
-4.98156e-19
1.27937e-21
-4.99486e-19
1.33051e-21
-5.00769e-19
1.28267e-21
-5.01517e-19
7.48299e-22
-5.02266e-19
7.48565e-22
-5.03552e-19
1.28629e-21
-5.0489e-19
1.33768e-21
-5.06179e-19
1.28959e-21
-5.06932e-19
7.52315e-22
-5.07684e-19
7.52612e-22
-5.08977e-19
1.29318e-21
-5.10322e-19
1.34489e-21
-5.11619e-19
1.29646e-21
-5.12375e-19
7.56406e-22
-5.13132e-19
7.56557e-22
-5.14432e-19
1.30021e-21
-5.15784e-19
1.35192e-21
-5.17088e-19
1.3036e-21
-5.17848e-19
7.60133e-22
-5.18609e-19
7.61001e-22
-5.19915e-19
1.30656e-21
-5.21275e-19
1.35988e-21
-5.22585e-19
1.30944e-21
-5.2335e-19
7.65651e-22
-5.24113e-19
7.63093e-22
-5.2543e-19
1.317e-21
-5.26803e-19
1.37239e-21
-5.28177e-19
1.37415e-21
-5.29499e-19
1.32204e-21
-5.30267e-19
7.67846e-22
-5.31038e-19
7.70971e-22
-5.32359e-19
1.32169e-21
-5.33735e-19
1.37605e-21
-5.35061e-19
1.32541e-21
-5.35835e-19
7.73829e-22
-5.36608e-19
7.73496e-22
-5.37938e-19
1.32969e-21
-5.3932e-19
1.38244e-21
-5.40653e-19
1.3329e-21
-5.41431e-19
7.77436e-22
-5.42208e-19
7.77833e-22
-5.43545e-19
1.33638e-21
-5.44935e-19
1.38978e-21
-5.46274e-19
1.3397e-21
-5.47056e-19
7.81551e-22
-5.47838e-19
7.818e-22
-5.49181e-19
1.34334e-21
-5.50578e-19
1.39693e-21
-5.51925e-19
1.34664e-21
-5.5271e-19
7.85566e-22
-5.53496e-19
7.85838e-22
-5.54846e-19
1.35025e-21
-5.5625e-19
1.40412e-21
-5.57604e-19
1.35356e-21
-5.58394e-19
7.89585e-22
-5.59183e-19
7.89883e-22
-5.60541e-19
1.35715e-21
-5.61952e-19
1.41133e-21
-5.63312e-19
1.36043e-21
-5.64106e-19
7.93679e-22
-5.649e-19
7.93824e-22
-5.66264e-19
1.36418e-21
-5.67682e-19
1.41835e-21
-5.6905e-19
1.36757e-21
-5.69847e-19
7.97391e-22
-5.70646e-19
7.98288e-22
-5.72016e-19
1.3705e-21
-5.73442e-19
1.42635e-21
-5.74816e-19
1.37336e-21
-5.75619e-19
8.02982e-22
-5.76419e-19
8.00286e-22
-5.778e-19
1.38111e-21
-5.79239e-19
1.43911e-21
-5.8068e-19
1.44088e-21
-5.82066e-19
1.38615e-21
-5.82871e-19
8.05038e-22
-5.8368e-19
8.08302e-22
-5.85065e-19
1.38561e-21
-5.86508e-19
1.44252e-21
-5.87897e-19
1.38935e-21
-5.88708e-19
8.11116e-22
-5.89519e-19
8.10755e-22
-5.90913e-19
1.39367e-21
-5.92362e-19
1.44887e-21
-5.93758e-19
1.39687e-21
-5.94573e-19
8.14703e-22
-5.95388e-19
8.15106e-22
-5.96789e-19
1.40035e-21
-5.98245e-19
1.45622e-21
-5.99648e-19
1.40366e-21
-6.00467e-19
8.18823e-22
-6.01286e-19
8.19069e-22
-6.02694e-19
1.40731e-21
-6.04157e-19
1.46337e-21
-6.05568e-19
1.41061e-21
-6.0639e-19
8.22834e-22
-6.07214e-19
8.23112e-22
-6.08628e-19
1.41421e-21
-6.10098e-19
1.47056e-21
-6.11516e-19
1.41751e-21
-6.12343e-19
8.26869e-22
-6.1317e-19
8.27135e-22
-6.14591e-19
1.42114e-21
-6.16069e-19
1.47773e-21
-6.17493e-19
1.42444e-21
-6.18324e-19
8.30884e-22
-6.19155e-19
8.31184e-22
-6.20583e-19
1.42802e-21
-6.22068e-19
1.48495e-21
-6.23499e-19
1.43131e-21
-6.24334e-19
8.34981e-22
-6.2517e-19
8.3512e-22
-6.26605e-19
1.43507e-21
-6.28097e-19
1.49196e-21
-6.29535e-19
1.43846e-21
-6.30374e-19
8.38678e-22
-6.31213e-19
8.39606e-22
-6.32655e-19
1.44135e-21
-6.34155e-19
1.5e-21
-6.35599e-19
1.44419e-21
-6.36443e-19
8.44349e-22
-6.37285e-19
8.415e-22
-6.38737e-19
1.45215e-21
-6.4025e-19
1.51305e-21
-6.41765e-19
1.51482e-21
-6.43222e-19
1.4572e-21
-6.44068e-19
8.46252e-22
-6.44918e-19
8.49669e-22
-6.46374e-19
1.45644e-21
-6.47891e-19
1.51617e-21
-6.49351e-19
1.46021e-21
-6.50203e-19
8.52435e-22
-6.51055e-19
8.5204e-22
-6.5252e-19
1.46456e-21
-6.54042e-19
1.52248e-21
-6.5551e-19
1.46776e-21
-6.56366e-19
8.55999e-22
-6.57222e-19
8.56409e-22
-6.58694e-19
1.47122e-21
-6.60223e-19
1.52984e-21
-6.61698e-19
1.47454e-21
-6.62558e-19
8.60123e-22
-6.63418e-19
8.60369e-22
-6.64897e-19
1.47819e-21
-6.66434e-19
1.53699e-21
-6.67915e-19
1.48148e-21
-6.68779e-19
8.64136e-22
-6.69644e-19
8.64409e-22
-6.71129e-19
1.4851e-21
-6.72673e-19
1.54417e-21
-6.74161e-19
1.4884e-21
-6.7503e-19
8.68155e-22
-6.75898e-19
8.68454e-22
-6.7739e-19
1.49199e-21
-6.78941e-19
1.55139e-21
-6.80437e-19
1.49527e-21
-6.81309e-19
8.72254e-22
-6.82181e-19
8.72387e-22
-6.8368e-19
1.49904e-21
-6.85239e-19
1.55839e-21
-6.86741e-19
1.50244e-21
-6.87617e-19
8.75936e-22
-6.88494e-19
8.76894e-22
-6.89999e-19
1.5053e-21
-6.91566e-19
1.56647e-21
-6.93074e-19
1.50811e-21
-6.93955e-19
8.8168e-22
-6.94834e-19
8.78693e-22
-6.9635e-19
1.51627e-21
-6.9793e-19
1.57977e-21
-6.99512e-19
1.58154e-21
-7.01033e-19
1.52131e-21
-7.01917e-19
8.83445e-22
-7.02804e-19
8.87e-22
-7.04324e-19
1.52036e-21
-7.05907e-19
1.58264e-21
-7.07431e-19
1.52415e-21
-7.0832e-19
8.89722e-22
-7.0921e-19
8.89299e-22
-7.10738e-19
1.52853e-21
-7.12327e-19
1.58891e-21
-7.13859e-19
1.53173e-21
-7.14752e-19
8.93266e-22
-7.15646e-19
8.93682e-22
-7.17181e-19
1.53519e-21
-7.18777e-19
1.59628e-21
-7.20316e-19
1.53851e-21
-7.21213e-19
8.97395e-22
-7.22111e-19
8.97638e-22
-7.23653e-19
1.54215e-21
-7.25256e-19
1.60342e-21
-7.26802e-19
1.54545e-21
-7.27703e-19
9.01403e-22
-7.28605e-19
9.01683e-22
-7.30154e-19
1.54906e-21
-7.31765e-19
1.61061e-21
-7.33317e-19
1.55236e-21
-7.34222e-19
9.0544e-22
-7.35128e-19
9.05705e-22
-7.36684e-19
1.55598e-21
-7.38302e-19
1.61778e-21
-7.39861e-19
1.55929e-21
-7.40771e-19
9.09453e-22
-7.4168e-19
9.09756e-22
-7.43243e-19
1.56287e-21
-7.44868e-19
1.62501e-21
-7.46434e-19
1.56615e-21
-7.47348e-19
9.13557e-22
-7.48262e-19
9.13683e-22
-7.49832e-19
1.56992e-21
-7.51463e-19
1.632e-21
-7.53037e-19
1.57333e-21
-7.53954e-19
9.17222e-22
-7.54872e-19
9.18213e-22
-7.56448e-19
1.57615e-21
-7.58089e-19
1.64012e-21
-7.59667e-19
1.57894e-21
-7.60591e-19
9.23047e-22
-7.6151e-19
9.19906e-22
-7.63098e-19
1.58731e-21
-7.64751e-19
1.65371e-21
-7.66407e-19
1.65548e-21
-7.67999e-19
1.59235e-21
-7.68924e-19
9.24659e-22
-7.69852e-19
9.28366e-22
-7.71443e-19
1.59119e-21
-7.731e-19
1.65629e-21
-7.74695e-19
1.595e-21
-7.75626e-19
9.3104e-22
-7.76556e-19
9.30585e-22
-7.78156e-19
1.59942e-21
-7.79818e-19
1.66252e-21
-7.81421e-19
1.60261e-21
-7.82356e-19
9.34562e-22
-7.83291e-19
9.34984e-22
-7.84897e-19
1.60606e-21
-7.86566e-19
1.6699e-21
-7.88176e-19
1.60939e-21
-7.89115e-19
9.38695e-22
-7.90053e-19
9.38938e-22
-7.91667e-19
1.61303e-21
-7.93344e-19
1.67704e-21
-7.9496e-19
1.61633e-21
-7.95903e-19
9.42706e-22
-7.96846e-19
9.42978e-22
-7.98466e-19
1.61994e-21
-8.0015e-19
1.68422e-21
-8.01773e-19
1.62325e-21
-8.0272e-19
9.46724e-22
-8.03667e-19
9.47026e-22
-8.05294e-19
1.62683e-21
-8.06985e-19
1.69144e-21
-8.08615e-19
1.63011e-21
-8.09566e-19