/*--------------------------------*- C++ -*----------------------------------*\
| =========                 |                                                 |
| \\      /  F ield         | OpenFOAM: The Open Source CFD Toolbox           |
|  \\    /   O peration     | Version:  2206                                  |
|   \\  /    A nd           | Website:  www.openfoam.com                      |
|    \\/     M anipulation  |                                                 |
\*---------------------------------------------------------------------------*/
FoamFile
{
    version     2.0;
    format      ascii;
    arch        "LSB;label=32;scalar=64";
    class       volVectorField;
    location    "263";
    object      U;
}
// * * * * * * * * * * * * * * * * * * * * * * * * * * * * * * * * * * * * * //

dimensions      [0 1 -1 0 0 0 0];

internalField   nonuniform List<vector> 
50000
(
(-6.06262e-12 1.03347e-05 7.06718e-13)
(-8.2931e-12 2.07886e-05 2.86626e-13)
(-1.15972e-11 3.75246e-05 4.48147e-13)
(-2.2311e-11 5.55126e-05 4.69736e-13)
(-2.5643e-11 7.16324e-05 2.77507e-13)
(-2.62961e-11 7.66542e-05 2.45079e-13)
(-3.06855e-11 9.32125e-05 4.32647e-13)
(-3.93462e-11 0.000111518 4.61151e-13)
(-4.70518e-11 0.000129779 4.56257e-13)
(-5.26479e-11 0.000146067 2.68447e-13)
(-5.16526e-11 0.000150965 2.50733e-13)
(-5.71399e-11 0.000167468 4.39235e-13)
(-6.51214e-11 0.00018578 4.61145e-13)
(-7.32164e-11 0.000204061 4.52987e-13)
(-7.8656e-11 0.000220395 2.64908e-13)
(-7.76296e-11 0.00022527 2.53506e-13)
(-8.33232e-11 0.000241747 4.41332e-13)
(-9.09075e-11 0.000260059 4.61403e-13)
(-9.96497e-11 0.000278348 4.51129e-13)
(-1.04131e-10 0.000294704 2.63501e-13)
(-1.04471e-10 0.000299571 2.54711e-13)
(-1.0826e-10 0.000316037 4.42977e-13)
(-1.18486e-10 0.000334372 4.64587e-13)
(-1.2381e-10 0.000352892 4.69195e-13)
(-1.34068e-10 0.000371207 4.5488e-13)
(-1.37888e-10 0.000387579 2.64974e-13)
(-1.38102e-10 0.000392442 2.58074e-13)
(-1.42683e-10 0.000408894 4.47583e-13)
(-1.51335e-10 0.000427205 4.654e-13)
(-1.59047e-10 0.0004455 4.53305e-13)
(-1.64696e-10 0.000461878 2.6393e-13)
(-1.63596e-10 0.000466738 2.58224e-13)
(-1.69133e-10 0.000483185 4.47418e-13)
(-1.77092e-10 0.000501495 4.64825e-13)
(-1.85298e-10 0.000519792 4.52317e-13)
(-1.90587e-10 0.000536175 2.63239e-13)
(-1.89756e-10 0.000541034 2.58297e-13)
(-1.951e-10 0.000557477 4.47336e-13)
(-2.03198e-10 0.000575785 4.64359e-13)
(-2.11299e-10 0.000594084 4.51618e-13)
(-2.16662e-10 0.00061047 2.62682e-13)
(-2.15783e-10 0.000615329 2.5839e-13)
(-2.21164e-10 0.000631768 4.47237e-13)
(-2.29235e-10 0.000650077 4.64033e-13)
(-2.37351e-10 0.000668376 4.51043e-13)
(-2.42702e-10 0.000684766 2.6228e-13)
(-2.41837e-10 0.000689624 2.58432e-13)
(-2.4721e-10 0.00070606 4.47187e-13)
(-2.55285e-10 0.000724368 4.63748e-13)
(-2.63395e-10 0.000742668 4.50609e-13)
(-2.68748e-10 0.00075906 2.61933e-13)
(-2.67887e-10 0.000763918 2.5849e-13)
(-2.73257e-10 0.000780352 4.47125e-13)
(-2.81336e-10 0.00079866 4.63537e-13)
(-2.89438e-10 0.00081696 4.50236e-13)
(-2.948e-10 0.000833355 2.61669e-13)
(-2.93929e-10 0.000838212 2.5852e-13)
(-2.99315e-10 0.000854645 4.4709e-13)
(-3.07372e-10 0.000872952 4.63346e-13)
(-3.15503e-10 0.000891253 4.4994e-13)
(-3.20823e-10 0.000907649 2.61434e-13)
(-3.20013e-10 0.000912506 2.58557e-13)
(-3.25317e-10 0.000928937 4.47049e-13)
(-3.33485e-10 0.000947244 4.63196e-13)
(-3.41461e-10 0.000965545 4.49681e-13)
(-3.46991e-10 0.000981943 2.61242e-13)
(-3.45897e-10 0.0009868 2.58585e-13)
(-3.51593e-10 0.00100323 4.47016e-13)
(-3.59224e-10 0.00102154 4.63069e-13)
(-3.67934e-10 0.00103984 4.49452e-13)
(-3.72456e-10 0.00105624 2.61095e-13)
(-3.72744e-10 0.00106109 2.58619e-13)
(-3.7655e-10 0.00107752 4.47279e-13)
(-3.86786e-10 0.00109585 4.6609e-13)
(-3.92113e-10 0.00111438 4.67498e-13)
(-4.02358e-10 0.0011327 4.50992e-13)
(-4.06174e-10 0.0011491 2.61765e-13)
(-4.06422e-10 0.00115396 2.59482e-13)
(-4.10977e-10 0.00117039 4.48374e-13)
(-4.19655e-10 0.00118869 4.64292e-13)
(-4.27331e-10 0.001207 4.50454e-13)
(-4.33002e-10 0.0012234 2.61589e-13)
(-4.31903e-10 0.00122825 2.59423e-13)
(-4.37439e-10 0.00124468 4.48287e-13)
(-4.45404e-10 0.00126299 4.64107e-13)
(-4.53596e-10 0.00128129 4.50241e-13)
(-4.58891e-10 0.00129769 2.61425e-13)
(-4.58068e-10 0.00130255 2.59401e-13)
(-4.63404e-10 0.00131897 4.48188e-13)
(-4.71513e-10 0.00133728 4.63959e-13)
(-4.79598e-10 0.00135558 4.50038e-13)
(-4.84971e-10 0.00137198 2.61291e-13)
(-4.84093e-10 0.00137684 2.59372e-13)
(-4.8947e-10 0.00139327 4.48108e-13)
(-4.97549e-10 0.00141157 4.6382e-13)
(-5.05655e-10 0.00142987 4.49862e-13)
(-5.1101e-10 0.00144628 2.61165e-13)
(-5.10148e-10 0.00145113 2.5935e-13)
(-5.15514e-10 0.00146756 4.48031e-13)
(-5.23602e-10 0.00148587 4.637e-13)
(-5.31697e-10 0.00150417 4.497e-13)
(-5.37064e-10 0.00152057 2.61056e-13)
(-5.3619e-10 0.00152543 2.59328e-13)
(-5.41573e-10 0.00154185 4.47965e-13)
(-5.49637e-10 0.00156016 4.63588e-13)
(-5.57763e-10 0.00157846 4.49555e-13)
(-5.63087e-10 0.00159486 2.60954e-13)
(-5.62273e-10 0.00159972 2.59309e-13)
(-5.67575e-10 0.00161614 4.47904e-13)
(-5.7575e-10 0.00163445 4.63486e-13)
(-5.83723e-10 0.00165275 4.49425e-13)
(-5.89255e-10 0.00166916 2.6086e-13)
(-5.88158e-10 0.00167401 2.59296e-13)
(-5.93849e-10 0.00169044 4.47841e-13)
(-6.0149e-10 0.00170874 4.63404e-13)
(-6.10194e-10 0.00172705 4.4929e-13)
(-6.14723e-10 0.00174345 2.60798e-13)
(-6.15002e-10 0.00174831 2.59288e-13)
(-6.1881e-10 0.00176473 4.4808e-13)
(-6.29048e-10 0.00178306 4.6643e-13)
(-6.34376e-10 0.00180158 4.67298e-13)
(-6.4462e-10 0.00181991 4.50366e-13)
(-6.48434e-10 0.00183632 2.61227e-13)
(-6.48688e-10 0.00184117 2.59801e-13)
(-6.53238e-10 0.0018576 4.48624e-13)
(-6.61922e-10 0.0018759 4.64148e-13)
(-6.6959e-10 0.0018942 4.49945e-13)
(-6.75266e-10 0.00191061 2.61132e-13)
(-6.74167e-10 0.00191547 2.59744e-13)
(-6.79701e-10 0.00193189 4.48562e-13)
(-6.87668e-10 0.00195019 4.6403e-13)
(-6.95857e-10 0.0019685 4.49828e-13)
(-7.01154e-10 0.0019849 2.61042e-13)
(-7.00331e-10 0.00198976 2.59718e-13)
(-7.05666e-10 0.00200618 4.48487e-13)
(-7.13778e-10 0.00202449 4.63935e-13)
(-7.2186e-10 0.00204279 4.49709e-13)
(-7.27234e-10 0.0020592 2.60966e-13)
(-7.26357e-10 0.00206405 2.59687e-13)
(-7.31732e-10 0.00208047 4.48421e-13)
(-7.39814e-10 0.00209878 4.63844e-13)
(-7.47917e-10 0.00211708 4.49601e-13)
(-7.53276e-10 0.00213349 2.60893e-13)
(-7.5241e-10 0.00213835 2.59661e-13)
(-7.57777e-10 0.00215477 4.48359e-13)
(-7.65865e-10 0.00217307 4.6376e-13)
(-7.73963e-10 0.00219138 4.49499e-13)
(-7.79324e-10 0.00220778 2.60827e-13)
(-7.7846e-10 0.00221264 2.59636e-13)
(-7.83825e-10 0.00222906 4.48302e-13)
(-7.91915e-10 0.00224737 4.6368e-13)
(-8.00008e-10 0.00226567 4.49405e-13)
(-8.05376e-10 0.00228208 2.60763e-13)
(-8.04502e-10 0.00228693 2.59613e-13)
(-8.09883e-10 0.00230335 4.48247e-13)
(-8.17951e-10 0.00232166 4.63607e-13)
(-8.26074e-10 0.00233996 4.49315e-13)
(-8.314e-10 0.00235637 2.60706e-13)
(-8.30585e-10 0.00236123 2.59589e-13)
(-8.35886e-10 0.00237765 4.48198e-13)
(-8.44063e-10 0.00239595 4.63535e-13)
(-8.52035e-10 0.00241425 4.49236e-13)
(-8.57567e-10 0.00243066 2.60646e-13)
(-8.56471e-10 0.00243552 2.59575e-13)
(-8.62159e-10 0.00245194 4.48142e-13)
(-8.69805e-10 0.00247024 4.63481e-13)
(-8.78504e-10 0.00248855 4.49142e-13)
(-8.83037e-10 0.00250496 2.60618e-13)
(-8.83313e-10 0.00250981 2.59561e-13)
(-8.87122e-10 0.00252623 4.48388e-13)
(-8.97361e-10 0.00254456 4.66518e-13)
(-9.02688e-10 0.00256309 4.67129e-13)
(-9.12931e-10 0.00258141 4.49992e-13)
(-9.16744e-10 0.00259782 2.60923e-13)
(-9.17002e-10 0.00260268 2.59919e-13)
(-9.21549e-10 0.0026191 4.48678e-13)
(-9.30235e-10 0.0026374 4.64005e-13)
(-9.379e-10 0.00265571 4.49621e-13)
(-9.43578e-10 0.00267211 2.60862e-13)
(-9.42479e-10 0.00267697 2.59868e-13)
(-9.48014e-10 0.00269339 4.48636e-13)
(-9.55981e-10 0.0027117 4.63922e-13)
(-9.64168e-10 0.00273 4.49547e-13)
(-9.69466e-10 0.00274641 2.60804e-13)
(-9.68645e-10 0.00275126 2.59846e-13)
(-9.73978e-10 0.00276768 4.48579e-13)
(-9.82091e-10 0.00278599 4.63856e-13)
(-9.90171e-10 0.00280429 4.49468e-13)
(-9.95546e-10 0.0028207 2.60754e-13)
(-9.94669e-10 0.00282556 2.59821e-13)
(-1.00004e-09 0.00284198 4.48528e-13)
(-1.00813e-09 0.00286028 4.63791e-13)
(-1.01623e-09 0.00287859 4.49394e-13)
(-1.02159e-09 0.00289499 2.60707e-13)
(-1.02072e-09 0.00289985 2.59798e-13)
(-1.02609e-09 0.00291627 4.4848e-13)
(-1.03418e-09 0.00293457 4.63729e-13)
(-1.04227e-09 0.00295288 4.49324e-13)
(-1.04764e-09 0.00296929 2.60661e-13)
(-1.04677e-09 0.00297414 2.59776e-13)
(-1.05215e-09 0.00299056 4.48433e-13)
(-1.06022e-09 0.00300887 4.63672e-13)
(-1.06834e-09 0.00302717 4.49257e-13)
(-1.07366e-09 0.00304358 2.60619e-13)
(-1.07285e-09 0.00304844 2.59754e-13)
(-1.07815e-09 0.00306486 4.48391e-13)
(-1.08633e-09 0.00308316 4.63614e-13)
(-1.0943e-09 0.00310146 4.49197e-13)
(-1.09983e-09 0.00311787 2.60574e-13)
(-1.09873e-09 0.00312273 2.5974e-13)
(-1.10442e-09 0.00313915 4.48341e-13)
(-1.11207e-09 0.00315745 4.63572e-13)
(-1.12077e-09 0.00317576 4.49122e-13)
(-1.1253e-09 0.00319217 2.60559e-13)
(-1.12558e-09 0.00319702 2.59727e-13)
(-1.12938e-09 0.00321344 4.48591e-13)
(-1.13962e-09 0.00323177 4.66614e-13)
(-1.14495e-09 0.00325029 4.67096e-13)
(-1.15519e-09 0.00326862 4.49855e-13)
(-1.15901e-09 0.00328503 2.608e-13)
(-1.15927e-09 0.00328989 2.60007e-13)
(-1.16381e-09 0.00330631 4.48755e-13)
(-1.1725e-09 0.00332461 4.63983e-13)
(-1.18016e-09 0.00334292 4.49504e-13)
(-1.18584e-09 0.00335933 2.60753e-13)
(-1.18474e-09 0.00336418 2.5996e-13)
(-1.19028e-09 0.0033806 4.48722e-13)
(-1.19825e-09 0.00339891 4.63915e-13)
(-1.20643e-09 0.00341721 4.49449e-13)
(-1.21173e-09 0.00343362 2.60707e-13)
(-1.21091e-09 0.00343847 2.59942e-13)
(-1.21624e-09 0.00345489 4.48674e-13)
(-1.22436e-09 0.0034732 4.63862e-13)
(-1.23243e-09 0.0034915 4.49387e-13)
(-1.23781e-09 0.00350791 2.6067e-13)
(-1.23693e-09 0.00351277 2.59919e-13)
(-1.24231e-09 0.00352919 4.48632e-13)
(-1.25039e-09 0.00354749 4.6381e-13)
(-1.25849e-09 0.00356579 4.4933e-13)
(-1.26385e-09 0.0035822 2.60633e-13)
(-1.26299e-09 0.00358706 2.59898e-13)
(-1.26835e-09 0.00360348 4.4859e-13)
(-1.27644e-09 0.00362178 4.6376e-13)
(-1.28454e-09 0.00364009 4.49274e-13)
(-1.2899e-09 0.0036565 2.60598e-13)
(-1.28904e-09 0.00366135 2.59878e-13)
(-1.2944e-09 0.00367777 4.4855e-13)
(-1.30249e-09 0.00369608 4.63712e-13)
(-1.31058e-09 0.00371438 4.49221e-13)
(-1.31595e-09 0.00373079 2.60564e-13)
(-1.31508e-09 0.00373565 2.5986e-13)
(-1.32046e-09 0.00375207 4.48512e-13)
(-1.32853e-09 0.00377037 4.63666e-13)
(-1.33665e-09 0.00378867 4.49169e-13)
(-1.34198e-09 0.00380508 2.60532e-13)
(-1.34116e-09 0.00380994 2.5984e-13)
(-1.34646e-09 0.00382636 4.48477e-13)
(-1.35464e-09 0.00384466 4.63619e-13)
(-1.36261e-09 0.00386297 4.49123e-13)
(-1.36814e-09 0.00387938 2.60497e-13)
(-1.36705e-09 0.00388423 2.59828e-13)
(-1.37273e-09 0.00390065 4.48434e-13)
(-1.38038e-09 0.00391896 4.63588e-13)
(-1.38908e-09 0.00393726 4.49061e-13)
(-1.39362e-09 0.00395367 2.6049e-13)
(-1.39389e-09 0.00395853 2.59817e-13)
(-1.3977e-09 0.00397495 4.48689e-13)
(-1.40794e-09 0.00399327 4.66636e-13)
(-1.41326e-09 0.0040118 4.67025e-13)
(-1.42351e-09 0.00403012 4.49712e-13)
(-1.42732e-09 0.00404654 2.60685e-13)
(-1.42758e-09 0.00405139 2.60045e-13)
(-1.43213e-09 0.00406781 4.48765e-13)
(-1.44081e-09 0.00408611 4.63921e-13)
(-1.44848e-09 0.00410442 4.49376e-13)
(-1.45415e-09 0.00412083 2.60648e-13)
(-1.45306e-09 0.00412568 2.60001e-13)
(-1.45859e-09 0.0041421 4.48741e-13)
(-1.46656e-09 0.00416041 4.63865e-13)
(-1.47474e-09 0.00417871 4.49335e-13)
(-1.48004e-09 0.00419512 2.60612e-13)
(-1.47922e-09 0.00419998 2.59986e-13)
(-1.48455e-09 0.0042164 4.48701e-13)
(-1.49267e-09 0.0042347 4.63823e-13)
(-1.50075e-09 0.004253 4.49286e-13)
(-1.50612e-09 0.00426941 2.60583e-13)
(-1.50525e-09 0.00427427 2.59966e-13)
(-1.51062e-09 0.00429069 4.48665e-13)
(-1.5187e-09 0.00430899 4.6378e-13)
(-1.5268e-09 0.0043273 4.4924e-13)
(-1.53216e-09 0.00434371 2.60554e-13)
(-1.5313e-09 0.00434856 2.59949e-13)
(-1.53666e-09 0.00436498 4.4863e-13)
(-1.54476e-09 0.00438329 4.6374e-13)
(-1.55285e-09 0.00440159 4.49196e-13)
(-1.55822e-09 0.004418 2.60526e-13)
(-1.55734e-09 0.00442286 2.59931e-13)
(-1.56272e-09 0.00443927 4.48596e-13)
(-1.57079e-09 0.00445758 4.63701e-13)
(-1.57891e-09 0.00447588 4.49152e-13)
(-1.58424e-09 0.00449229 2.605e-13)
(-1.58342e-09 0.00449715 2.59913e-13)
(-1.58873e-09 0.00451357 4.48566e-13)
(-1.5969e-09 0.00453187 4.6366e-13)
(-1.60488e-09 0.00455018 4.49114e-13)
(-1.61041e-09 0.00456659 2.6047e-13)
(-1.60931e-09 0.00457144 2.59903e-13)
(-1.615e-09 0.00458786 4.48526e-13)
(-1.62265e-09 0.00460617 4.63634e-13)
(-1.63134e-09 0.00462447 4.49059e-13)
(-1.63588e-09 0.00464088 2.60469e-13)
(-1.63615e-09 0.00464574 2.59893e-13)
(-1.63996e-09 0.00466216 4.48785e-13)
(-1.6502e-09 0.00468048 4.66685e-13)
(-1.65553e-09 0.00469901 4.67017e-13)
(-1.66577e-09 0.00471733 4.49658e-13)
(-1.66958e-09 0.00473375 2.60634e-13)
(-1.66984e-09 0.0047386 2.60088e-13)
(-1.67439e-09 0.00475502 4.48805e-13)
(-1.68308e-09 0.00477332 4.63918e-13)
(-1.69074e-09 0.00479163 4.49329e-13)
(-1.69642e-09 0.00480804 2.60603e-13)
(-1.69532e-09 0.0048129 2.60046e-13)
(-1.70085e-09 0.00482931 4.48787e-13)
(-1.70882e-09 0.00484762 4.63868e-13)
(-1.71701e-09 0.00486592 4.49296e-13)
(-1.72231e-09 0.00488233 2.60571e-13)
(-1.72149e-09 0.00488719 2.60033e-13)
(-1.72682e-09 0.00490361 4.48751e-13)
(-1.73493e-09 0.00492191 4.63832e-13)
(-1.74301e-09 0.00494021 4.49254e-13)
(-1.74839e-09 0.00495662 2.60547e-13)
(-1.74751e-09 0.00496148 2.60016e-13)
(-1.75288e-09 0.0049779 4.4872e-13)
(-1.76097e-09 0.0049962 4.63795e-13)
(-1.76907e-09 0.00501451 4.49215e-13)
(-1.77443e-09 0.00503092 2.60523e-13)
(-1.77356e-09 0.00503577 2.6e-13)
(-1.77893e-09 0.00505219 4.48689e-13)
(-1.78702e-09 0.0050705 4.6376e-13)
(-1.79512e-09 0.0050888 4.49177e-13)
(-1.80048e-09 0.00510521 2.60499e-13)
(-1.79961e-09 0.00511007 2.59984e-13)
(-1.80498e-09 0.00512648 4.48659e-13)
(-1.81307e-09 0.00514479 4.63725e-13)
(-1.82116e-09 0.00516309 4.49141e-13)
(-1.82653e-09 0.0051795 2.60476e-13)
(-1.82566e-09 0.00518436 2.59969e-13)
(-1.83103e-09 0.00520078 4.48629e-13)
(-1.83911e-09 0.00521908 4.63692e-13)
(-1.84723e-09 0.00523739 4.49104e-13)
(-1.85255e-09 0.0052538 2.60455e-13)
(-1.85174e-09 0.00525865 2.59953e-13)
(-1.85704e-09 0.00527507 4.48603e-13)
(-1.86522e-09 0.00529338 4.63657e-13)
(-1.87319e-09 0.00531168 4.49072e-13)
(-1.87872e-09 0.00532809 2.60429e-13)
(-1.87762e-09 0.00533295 2.59944e-13)
(-1.88331e-09 0.00534936 4.48567e-13)
(-1.89096e-09 0.00536767 4.63637e-13)
(-1.89966e-09 0.00538597 4.49024e-13)
(-1.90419e-09 0.00540238 2.60431e-13)
(-1.90446e-09 0.00540724 2.59935e-13)
(-1.90827e-09 0.00542366 4.48829e-13)
(-1.91851e-09 0.00544199 4.66691e-13)
(-1.92384e-09 0.00546051 4.66977e-13)
(-1.93408e-09 0.00547884 4.49581e-13)
(-1.9379e-09 0.00549525 2.60573e-13)
(-1.93816e-09 0.00550011 2.60104e-13)
(-1.9427e-09 0.00551652 4.48806e-13)
(-1.95139e-09 0.00553483 4.63882e-13)
(-1.95905e-09 0.00555313 4.49259e-13)
(-1.96473e-09 0.00556954 2.60546e-13)
(-1.96363e-09 0.0055744 2.60065e-13)
(-1.96917e-09 0.00559082 4.48792e-13)
(-1.97714e-09 0.00560912 4.63837e-13)
(-1.98532e-09 0.00562742 4.49232e-13)
(-1.99062e-09 0.00564384 2.60519e-13)
(-1.9898e-09 0.00564869 2.60054e-13)
(-1.99513e-09 0.00566511 4.4876e-13)
(-2.00325e-09 0.00568341 4.63807e-13)
(-2.01132e-09 0.00570172 4.49196e-13)
(-2.0167e-09 0.00571813 2.60499e-13)
(-2.01582e-09 0.00572298 2.60038e-13)
(-2.0212e-09 0.0057394 4.48733e-13)
(-2.02928e-09 0.00575771 4.63775e-13)
(-2.03738e-09 0.00577601 4.49163e-13)
(-2.04274e-09 0.00579242 2.60478e-13)
(-2.04188e-09 0.00579728 2.60024e-13)
(-2.04724e-09 0.00581369 4.48706e-13)
(-2.05534e-09 0.005832 4.63745e-13)
(-2.06342e-09 0.0058503 4.49131e-13)
(-2.0688e-09 0.00586671 2.60458e-13)
(-2.06792e-09 0.00587157 2.6001e-13)
(-2.0733e-09 0.00588799 4.48679e-13)
(-2.08137e-09 0.00590629 4.63715e-13)
(-2.08949e-09 0.0059246 4.49099e-13)
(-2.09482e-09 0.00594101 2.6044e-13)
(-2.094e-09 0.00594586 2.59995e-13)
(-2.0993e-09 0.00596228 4.48655e-13)
(-2.10748e-09 0.00598058 4.63684e-13)
(-2.11545e-09 0.00599889 4.49071e-13)
(-2.12099e-09 0.0060153 2.60416e-13)
(-2.11989e-09 0.00602016 2.59988e-13)
(-2.12557e-09 0.00603657 4.48622e-13)
(-2.13322e-09 0.00605488 4.63667e-13)
(-2.14192e-09 0.00607318 4.49026e-13)
(-2.14646e-09 0.00608959 2.60421e-13)
(-2.14673e-09 0.00609445 2.5998e-13)
(-2.15054e-09 0.00611087 4.48887e-13)
(-2.16078e-09 0.0061292 4.66722e-13)
(-2.16611e-09 0.00614772 4.66976e-13)
(-2.17635e-09 0.00616605 4.49554e-13)
(-2.18016e-09 0.00618246 2.60547e-13)
(-2.18042e-09 0.00618732 2.60131e-13)
(-2.18497e-09 0.00620373 4.48833e-13)
(-2.19366e-09 0.00622204 4.63883e-13)
(-2.20132e-09 0.00624034 4.49236e-13)
(-2.207e-09 0.00625675 2.60522e-13)
(-2.2059e-09 0.00626161 2.60093e-13)
(-2.21143e-09 0.00627803 4.48821e-13)
(-2.2194e-09 0.00629633 4.63843e-13)
(-2.22758e-09 0.00631463 4.49213e-13)
(-2.23288e-09 0.00633105 2.60497e-13)
(-2.23206e-09 0.0063359 2.60083e-13)
(-2.23739e-09 0.00635232 4.48792e-13)
(-2.24551e-09 0.00637062 4.63816e-13)
(-2.25359e-09 0.00638893 4.49181e-13)
(-2.25896e-09 0.00640534 2.6048e-13)
(-2.25809e-09 0.00641019 2.60069e-13)
(-2.26346e-09 0.00642661 4.48768e-13)
(-2.27155e-09 0.00644492 4.63787e-13)
(-2.27965e-09 0.00646322 4.49152e-13)
(-2.28501e-09 0.00647963 2.60462e-13)
(-2.28414e-09 0.00648449 2.60056e-13)
(-2.28951e-09 0.0065009 4.48743e-13)
(-2.2976e-09 0.00651921 4.6376e-13)
(-2.30569e-09 0.00653751 4.49123e-13)
(-2.31105e-09 0.00655392 2.60444e-13)
(-2.31019e-09 0.00655878 2.60043e-13)
(-2.31555e-09 0.0065752 4.48719e-13)
(-2.32365e-09 0.0065935 4.63733e-13)
(-2.33174e-09 0.00661181 4.49095e-13)
(-2.33711e-09 0.00662822 2.60427e-13)
(-2.33623e-09 0.00663307 2.6003e-13)
(-2.34161e-09 0.00664949 4.48696e-13)
(-2.34968e-09 0.00666779 4.63707e-13)
(-2.3578e-09 0.0066861 4.49067e-13)
(-2.36313e-09 0.00670251 2.60411e-13)
(-2.36231e-09 0.00670737 2.60017e-13)
(-2.36761e-09 0.00672378 4.48674e-13)
(-2.37579e-09 0.00674209 4.63679e-13)
(-2.38377e-09 0.00676039 4.49043e-13)
(-2.3893e-09 0.0067768 2.6039e-13)
(-2.3882e-09 0.00678166 2.6001e-13)
(-2.39389e-09 0.00679808 4.48644e-13)
(-2.40154e-09 0.00681638 4.63665e-13)
(-2.41023e-09 0.00683468 4.49002e-13)
(-2.41477e-09 0.0068511 2.60397e-13)
(-2.41504e-09 0.00685595 2.60004e-13)
(-2.41885e-09 0.00687237 4.4891e-13)
(-2.42909e-09 0.0068907 4.66722e-13)
(-2.43442e-09 0.00690922 4.66948e-13)
(-2.44466e-09 0.00692755 4.49504e-13)
(-2.44847e-09 0.00694396 2.60508e-13)
(-2.44874e-09 0.00694882 2.60139e-13)
(-2.45328e-09 0.00696523 4.4883e-13)
(-2.46197e-09 0.00698354 4.63858e-13)
(-2.46963e-09 0.00700184 4.4919e-13)
(-2.47531e-09 0.00701826 2.60486e-13)
(-2.47421e-09 0.00702311 2.60102e-13)
(-2.47974e-09 0.00703953 4.48821e-13)
(-2.48771e-09 0.00705783 4.63821e-13)
(-2.4959e-09 0.00707614 4.49171e-13)
(-2.5012e-09 0.00709255 2.60464e-13)
(-2.50038e-09 0.0070974 2.60094e-13)
(-2.50571e-09 0.00711382 4.48795e-13)
(-2.51382e-09 0.00713213 4.63798e-13)
(-2.5219e-09 0.00715043 4.49143e-13)
(-2.52728e-09 0.00716684 2.60449e-13)
(-2.5264e-09 0.0071717 2.60081e-13)
(-2.53177e-09 0.00718811 4.48774e-13)
(-2.53986e-09 0.00720642 4.63772e-13)
(-2.54796e-09 0.00722472 4.49117e-13)
(-2.55332e-09 0.00724113 2.60433e-13)
(-2.55246e-09 0.00724599 2.60069e-13)
(-2.55782e-09 0.00726241 4.48751e-13)
(-2.56591e-09 0.00728071 4.63748e-13)
(-2.574e-09 0.00729902 4.49092e-13)
(-2.57937e-09 0.00731543 2.60417e-13)
(-2.5785e-09 0.00732028 2.60058e-13)
(-2.58388e-09 0.0073367 4.4873e-13)
(-2.59195e-09 0.007355 4.63724e-13)
(-2.60007e-09 0.00737331 4.49066e-13)
(-2.6054e-09 0.00738972 2.60403e-13)
(-2.60458e-09 0.00739458 2.60045e-13)
(-2.60988e-09 0.00741099 4.4871e-13)
(-2.61806e-09 0.0074293 4.63698e-13)
(-2.62603e-09 0.0074476 4.49045e-13)
(-2.63156e-09 0.00746401 2.60383e-13)
(-2.63047e-09 0.00746887 2.6004e-13)
(-2.63615e-09 0.00748529 4.48681e-13)
(-2.6438e-09 0.00750359 4.63686e-13)
(-2.6525e-09 0.00752189 4.49006e-13)
(-2.65704e-09 0.00753831 2.60392e-13)
(-2.6573e-09 0.00754316 2.60034e-13)
(-2.66112e-09 0.00755958 4.48949e-13)
(-2.67136e-09 0.00757791 4.66745e-13)
(-2.67668e-09 0.00759643 4.66951e-13)
(-2.68692e-09 0.00761476 4.49489e-13)
(-2.69074e-09 0.00763117 2.60492e-13)
(-2.691e-09 0.00763603 2.60157e-13)
(-2.69554e-09 0.00765244 4.48849e-13)
(-2.70423e-09 0.00767075 4.63862e-13)
(-2.71189e-09 0.00768905 4.49178e-13)
(-2.71757e-09 0.00770547 2.60472e-13)
(-2.71647e-09 0.00771032 2.60122e-13)
(-2.72201e-09 0.00772674 4.48843e-13)
(-2.72998e-09 0.00774504 4.63827e-13)
(-2.73816e-09 0.00776335 4.49161e-13)
(-2.74346e-09 0.00777976 2.60451e-13)
(-2.74264e-09 0.00778461 2.60114e-13)
(-2.74797e-09 0.00780103 4.48819e-13)
(-2.75609e-09 0.00781934 4.63806e-13)
(-2.76416e-09 0.00783764 4.49135e-13)
(-2.76954e-09 0.00785405 2.60438e-13)
(-2.76867e-09 0.00785891 2.60102e-13)
(-2.77404e-09 0.00787532 4.48798e-13)
(-2.78212e-09 0.00789363 4.63782e-13)
(-2.79022e-09 0.00791193 4.49112e-13)
(-2.79558e-09 0.00792834 2.60423e-13)
(-2.79472e-09 0.0079332 2.60091e-13)
(-2.80008e-09 0.00794962 4.48778e-13)
(-2.80817e-09 0.00796792 4.6376e-13)
(-2.81627e-09 0.00798623 4.49089e-13)
(-2.82163e-09 0.00800264 2.60409e-13)
(-2.82077e-09 0.00800749 2.6008e-13)
(-2.82613e-09 0.00802391 4.48758e-13)
(-2.83423e-09 0.00804221 4.63738e-13)
(-2.84231e-09 0.00806052 4.49066e-13)
(-2.84769e-09 0.00807693 2.60395e-13)
(-2.84681e-09 0.00808179 2.6007e-13)
(-2.85219e-09 0.0080982 4.48738e-13)
(-2.86026e-09 0.00811651 4.63717e-13)
(-2.86838e-09 0.00813481 4.49043e-13)
(-2.87371e-09 0.00815122 2.60382e-13)
(-2.87289e-09 0.00815608 2.60058e-13)
(-2.87819e-09 0.0081725 4.48721e-13)
(-2.88637e-09 0.0081908 4.63693e-13)
(-2.89434e-09 0.0082091 4.49024e-13)
(-2.89988e-09 0.00822552 2.60365e-13)
(-2.89878e-09 0.00823037 2.60053e-13)
(-2.90446e-09 0.00824679 4.48694e-13)
(-2.91212e-09 0.00826509 4.63683e-13)
(-2.92081e-09 0.0082834 4.48988e-13)
(-2.92535e-09 0.00829981 2.60375e-13)
(-2.92562e-09 0.00830467 2.60049e-13)
(-2.92943e-09 0.00832108 4.48963e-13)
(-2.93967e-09 0.00833941 4.66743e-13)
(-2.945e-09 0.00835793 4.6693e-13)
(-2.95524e-09 0.00837626 4.49454e-13)
(-2.95905e-09 0.00839268 2.60465e-13)
(-2.95931e-09 0.00839753 2.60161e-13)
(-2.96386e-09 0.00841395 4.48846e-13)
(-2.97255e-09 0.00843225 4.63843e-13)
(-2.9802e-09 0.00845056 4.49145e-13)
(-2.98589e-09 0.00846697 2.60447e-13)
(-2.98479e-09 0.00847182 2.60127e-13)
(-2.99032e-09 0.00848824 4.48841e-13)
(-2.99829e-09 0.00850655 4.6381e-13)
(-3.00647e-09 0.00852485 4.49131e-13)
(-3.01177e-09 0.00854126 2.60427e-13)
(-3.01095e-09 0.00854612 2.60121e-13)
(-3.01628e-09 0.00856253 4.48819e-13)
(-3.0244e-09 0.00858084 4.63791e-13)
(-3.03248e-09 0.00859914 4.49108e-13)
(-3.03785e-09 0.00861555 2.60415e-13)
(-3.03698e-09 0.00862041 2.6011e-13)
(-3.04235e-09 0.00863683 4.488e-13)
(-3.05044e-09 0.00865513 4.6377e-13)
(-3.05854e-09 0.00867343 4.49087e-13)
(-3.0639e-09 0.00868985 2.60402e-13)
(-3.06303e-09 0.0086947 2.60099e-13)
(-3.06839e-09 0.00871112 4.48782e-13)
(-3.07649e-09 0.00872942 4.6375e-13)
(-3.08458e-09 0.00874773 4.49066e-13)
(-3.08995e-09 0.00876414 2.60389e-13)
(-3.08907e-09 0.008769 2.6009e-13)
(-3.09445e-09 0.00878541 4.48763e-13)
(-3.10253e-09 0.00880372 4.6373e-13)
(-3.11064e-09 0.00882202 4.49044e-13)
(-3.11597e-09 0.00883843 2.60378e-13)
(-3.11516e-09 0.00884329 2.60078e-13)
(-3.12046e-09 0.00885971 4.48747e-13)
(-3.12864e-09 0.00887801 4.63708e-13)
(-3.13661e-09 0.00889631 4.49027e-13)
(-3.14214e-09 0.00891273 2.60361e-13)
(-3.14104e-09 0.00891758 2.60075e-13)
(-3.14673e-09 0.008934 4.48721e-13)
(-3.15438e-09 0.0089523 4.637e-13)
(-3.16307e-09 0.00897061 4.48992e-13)
(-3.16761e-09 0.00898702 2.60373e-13)
(-3.16788e-09 0.00899188 2.60071e-13)
(-3.17169e-09 0.00900829 4.48992e-13)
(-3.18193e-09 0.00902662 4.66761e-13)
(-3.18726e-09 0.00904514 4.66933e-13)
(-3.1975e-09 0.00906347 4.49445e-13)
(-3.20131e-09 0.00907989 2.60455e-13)
(-3.20158e-09 0.00908474 2.60175e-13)
(-3.20612e-09 0.00910116 4.48861e-13)
(-3.21481e-09 0.00911946 4.63847e-13)
(-3.22247e-09 0.00913777 4.49138e-13)
(-3.22815e-09 0.00915418 2.60438e-13)
(-3.22705e-09 0.00915903 2.60142e-13)
(-3.23259e-09 0.00917545 4.48858e-13)
(-3.24056e-09 0.00919375 4.63816e-13)
(-3.24874e-09 0.00921206 4.49126e-13)
(-3.25404e-09 0.00922847 2.60419e-13)
(-3.25322e-09 0.00923333 2.60136e-13)
(-3.25855e-09 0.00924974 4.48837e-13)
(-3.26667e-09 0.00926805 4.63799e-13)
(-3.27474e-09 0.00928635 4.49104e-13)
(-3.28012e-09 0.00930276 2.60409e-13)
(-3.27924e-09 0.00930762 2.60125e-13)
(-3.28461e-09 0.00932404 4.48819e-13)
(-3.2927e-09 0.00934234 4.63779e-13)
(-3.3008e-09 0.00936064 4.49085e-13)
(-3.30616e-09 0.00937706 2.60396e-13)
(-3.3053e-09 0.00938191 2.60116e-13)
(-3.31066e-09 0.00939833 4.48802e-13)
(-3.31875e-09 0.00941663 4.6376e-13)
(-3.32685e-09 0.00943494 4.49065e-13)
(-3.33221e-09 0.00945135 2.60385e-13)
(-3.33134e-09 0.00945621 2.60106e-13)
(-3.33671e-09 0.00947262 4.48785e-13)
(-3.3448e-09 0.00949093 4.63741e-13)
(-3.35289e-09 0.00950923 4.49046e-13)
(-3.35826e-09 0.00952564 2.60373e-13)
(-3.35739e-09 0.0095305 2.60097e-13)
(-3.36277e-09 0.00954692 4.48768e-13)
(-3.37084e-09 0.00956522 4.63723e-13)
(-3.37896e-09 0.00958352 4.49027e-13)
(-3.38429e-09 0.00959994 2.60363e-13)
(-3.38347e-09 0.00960479 2.60087e-13)
(-3.38877e-09 0.00962121 4.48753e-13)
(-3.39695e-09 0.00963951 4.63703e-13)
(-3.40492e-09 0.00965782 4.49011e-13)
(-3.41045e-09 0.00967423 2.60347e-13)
(-3.40936e-09 0.00967909 2.60084e-13)
(-3.41504e-09 0.0096955 4.48728e-13)
(-3.42269e-09 0.00971381 4.63696e-13)
(-3.43139e-09 0.00973211 4.48978e-13)
(-3.43593e-09 0.00974852 2.6036e-13)
(-3.43619e-09 0.00975338 2.6008e-13)
(-3.44001e-09 0.0097698 4.49001e-13)
(-3.45025e-09 0.00978812 4.66758e-13)
(-3.45557e-09 0.00980665 4.66917e-13)
(-3.46581e-09 0.00982497 4.49419e-13)
(-3.46963e-09 0.00984139 2.60435e-13)
(-3.46989e-09 0.00984624 2.60178e-13)
(-3.47443e-09 0.00986266 4.48857e-13)
(-3.48312e-09 0.00988096 4.63832e-13)
(-3.49078e-09 0.00989927 4.49113e-13)
(-3.49646e-09 0.00991568 2.60419e-13)
(-3.49536e-09 0.00992054 2.60145e-13)
(-3.5009e-09 0.00993695 4.48855e-13)
(-3.50887e-09 0.00995526 4.63803e-13)
(-3.51705e-09 0.00997356 4.49103e-13)
(-3.52235e-09 0.00998997 2.60401e-13)
(-3.52153e-09 0.00999483 2.6014e-13)
(-3.52686e-09 0.0100112 4.48835e-13)
(-3.53498e-09 0.0100296 4.63787e-13)
(-3.54305e-09 0.0100479 4.49083e-13)
(-3.54843e-09 0.0100643 2.60392e-13)
(-3.54756e-09 0.0100691 2.6013e-13)
(-3.55293e-09 0.0100855 4.4882e-13)
(-3.56101e-09 0.0101038 4.63769e-13)
(-3.56911e-09 0.0101221 4.49065e-13)
(-3.57447e-09 0.0101386 2.60381e-13)
(-3.57361e-09 0.0101434 2.60121e-13)
(-3.57897e-09 0.0101598 4.48803e-13)
(-3.58707e-09 0.0101781 4.63751e-13)
(-3.59516e-09 0.0101964 4.49047e-13)
(-3.60053e-09 0.0102129 2.6037e-13)
(-3.59965e-09 0.0102177 2.60112e-13)
(-3.60503e-09 0.0102341 4.48787e-13)
(-3.6131e-09 0.0102524 4.63734e-13)
(-3.62122e-09 0.0102707 4.49029e-13)
(-3.62655e-09 0.0102871 2.6036e-13)
(-3.62573e-09 0.010292 2.60103e-13)
(-3.63103e-09 0.0103084 4.48773e-13)
(-3.63921e-09 0.0103267 4.63715e-13)
(-3.64718e-09 0.010345 4.49015e-13)
(-3.65272e-09 0.0103614 2.60345e-13)
(-3.65162e-09 0.0103663 2.601e-13)
(-3.6573e-09 0.0103827 4.4875e-13)
(-3.66496e-09 0.010401 4.6371e-13)
(-3.67365e-09 0.0104193 4.48983e-13)
(-3.67819e-09 0.0104357 2.60359e-13)
(-3.67846e-09 0.0104406 2.60097e-13)
(-3.68227e-09 0.010457 4.49023e-13)
(-3.69251e-09 0.0104753 4.66772e-13)
(-3.69784e-09 0.0104939 4.66921e-13)
(-3.70808e-09 0.0105122 4.49414e-13)
(-3.71189e-09 0.0105286 2.60429e-13)
(-3.71215e-09 0.0105335 2.60188e-13)
(-3.7167e-09 0.0105499 4.48869e-13)
(-3.72539e-09 0.0105682 4.63837e-13)
(-3.73305e-09 0.0105865 4.49109e-13)
(-3.73873e-09 0.0106029 2.60413e-13)
(-3.73763e-09 0.0106077 2.60156e-13)
(-3.74316e-09 0.0106242 4.48868e-13)
(-3.75113e-09 0.0106425 4.63808e-13)
(-3.75932e-09 0.0106608 4.491e-13)
(-3.76461e-09 0.0106772 2.60396e-13)
(-3.7638e-09 0.010682 2.60152e-13)
(-3.76913e-09 0.0106985 4.4885e-13)
(-3.77724e-09 0.0107168 4.63794e-13)
(-3.78532e-09 0.0107351 4.49081e-13)
(-3.7907e-09 0.0107515 2.60387e-13)
(-3.78982e-09 0.0107563 2.60142e-13)
(-3.79519e-09 0.0107727 4.48835e-13)
(-3.80328e-09 0.0107911 4.63776e-13)
(-3.81138e-09 0.0108094 4.49064e-13)
(-3.81674e-09 0.0108258 2.60377e-13)
(-3.81587e-09 0.0108306 2.60134e-13)
(-3.82124e-09 0.010847 4.4882e-13)
(-3.82933e-09 0.0108653 4.6376e-13)
(-3.83742e-09 0.0108837 4.49048e-13)
(-3.84279e-09 0.0109001 2.60367e-13)
(-3.84192e-09 0.0109049 2.60125e-13)
(-3.84728e-09 0.0109213 4.48805e-13)
(-3.85538e-09 0.0109396 4.63744e-13)
(-3.86347e-09 0.0109579 4.49031e-13)
(-3.86884e-09 0.0109744 2.60357e-13)
(-3.86796e-09 0.0109792 2.60117e-13)
(-3.87334e-09 0.0109956 4.4879e-13)
(-3.88142e-09 0.0110139 4.63728e-13)
(-3.88953e-09 0.0110322 4.49014e-13)
(-3.89486e-09 0.0110486 2.60348e-13)
(-3.89405e-09 0.0110535 2.60108e-13)
(-3.89935e-09 0.0110699 4.48777e-13)
(-3.90753e-09 0.0110882 4.6371e-13)
(-3.9155e-09 0.0111065 4.49001e-13)
(-3.92103e-09 0.0111229 2.60334e-13)
(-3.91993e-09 0.0111278 2.60106e-13)
(-3.92562e-09 0.0111442 4.48754e-13)
(-3.93327e-09 0.0111625 4.63706e-13)
(-3.94196e-09 0.0111808 4.48971e-13)
(-3.9465e-09 0.0111972 2.60348e-13)
(-3.94677e-09 0.0112021 2.60104e-13)
(-3.95058e-09 0.0112185 4.49028e-13)
(-3.96082e-09 0.0112368 4.66769e-13)
(-3.96615e-09 0.0112554 4.66907e-13)
(-3.97639e-09 0.0112737 4.49392e-13)
(-3.9802e-09 0.0112901 2.60413e-13)
(-3.98047e-09 0.011295 2.60189e-13)
(-3.98501e-09 0.0113114 4.48865e-13)
(-3.9937e-09 0.0113297 4.63824e-13)
(-4.00136e-09 0.011348 4.49089e-13)
(-4.00704e-09 0.0113644 2.60398e-13)
(-4.00594e-09 0.0113693 2.60158e-13)
(-4.01148e-09 0.0113857 4.48865e-13)
(-4.01945e-09 0.011404 4.63797e-13)
(-4.02763e-09 0.0114223 4.49081e-13)
(-4.03293e-09 0.0114387 2.60382e-13)
(-4.03211e-09 0.0114435 2.60154e-13)
(-4.03744e-09 0.01146 4.48848e-13)
(-4.04556e-09 0.0114783 4.63784e-13)
(-4.05363e-09 0.0114966 4.49064e-13)
(-4.05901e-09 0.011513 2.60374e-13)
(-4.05813e-09 0.0115178 2.60145e-13)
(-4.06351e-09 0.0115343 4.48834e-13)
(-4.07159e-09 0.0115526 4.63768e-13)