/*--------------------------------*- C++ -*----------------------------------*\
| =========                 |                                                 |
| \\      /  F ield         | OpenFOAM: The Open Source CFD Toolbox           |
|  \\    /   O peration     | Version:  2206                                  |
|   \\  /    A nd           | Website:  www.openfoam.com                      |
|    \\/     M anipulation  |                                                 |
\*---------------------------------------------------------------------------*/
FoamFile
{
    version     2.0;
    format      ascii;
    arch        "LSB;label=32;scalar=64";
    class       volScalarField;
    location    "500";
    object      p;
}
// * * * * * * * * * * * * * * * * * * * * * * * * * * * * * * * * * * * * * //

dimensions      [0 2 -2 0 0 0 0];

internalField   nonuniform List<scalar> 
100
(
-2.01093593e-08
0.0379128864
0.0548373873
0.0704863465
0.0822711792
0.0916677174
0.0991838875
0.105261156
0.110218982
0.114297001
0.11767672
0.120497224
0.122866157
0.124867635
0.126567953
0.128019804
0.129265373
0.130338696
0.131267395
0.132074051
0.132777216
0.133392232
0.133931839
0.134406684
0.134825694
0.135196401
0.13552517
0.135817422
0.136077771
0.136310178
0.136518037
0.136704285
0.136871449
0.137021733
0.137157046
0.13727906
0.13738923
0.137488841
0.137579011
0.137660737
0.137734888
0.137802243
0.137863482
0.13791922
0.137969994
0.138016291
0.138058538
0.138097125
0.138132393
0.138164657
0.138194189
0.138221245
0.138246044
0.138268795
0.138289677
0.138308859
0.138326486
0.1383427
0.138357618
0.138371356
0.138384011
0.13839568
0.138406442
0.138416378
0.138425552
0.138434032
0.138441872
0.138449128
0.138455845
0.138462071
0.138467842
0.138473198
0.138478169
0.138482791
0.138487088
0.138491089
0.138494815
0.13849829
0.138501532
0.138504562
0.138507395
0.138510048
0.138512533
0.138514866
0.138517058
0.138519119
0.138521061
0.138522893
0.138524622
0.138526259
0.13852781
0.138529282
0.138530681
0.138532013
0.138533284
0.138534501
0.138535679
0.138536822
0.138537827
0.138538423
)
;

boundaryField
{
    left
    {
        type            wedge;
    }
    right
    {
        type            wedge;
    }
    outerWall
    {
        type            zeroGradient;
    }
    innerWall
    {
        type            zeroGradient;
    }
    frontAndBack
    {
        type            empty;
    }
}


// ************************************************************************* //
