/*--------------------------------*- C++ -*----------------------------------*\
| =========                 |                                                 |
| \\      /  F ield         | OpenFOAM: The Open Source CFD Toolbox           |
|  \\    /   O peration     | Version:  2206                                  |
|   \\  /    A nd           | Website:  www.openfoam.com                      |
|    \\/     M anipulation  |                                                 |
\*---------------------------------------------------------------------------*/
FoamFile
{
    version     2.0;
    format      ascii;
    arch        "LSB;label=32;scalar=64";
    class       surfaceScalarField;
    location    "500";
    object      phi;
}
// * * * * * * * * * * * * * * * * * * * * * * * * * * * * * * * * * * * * * //

dimensions      [0 3 -1 0 0 0 0];

oriented        oriented;

internalField   nonuniform List<scalar> 
99
(
1.07543016e-11
2.04637895e-11
2.92554855e-11
3.73213159e-11
4.46778166e-11
5.14936537e-11
5.77404765e-11
6.35822279e-11
6.89525555e-11
7.40207358e-11
7.86845384e-11
8.31284724e-11
8.72146302e-11
9.11480451e-11
9.47531965e-11
9.82639825e-11
1.01465106e-10
1.04622556e-10
1.07478073e-10
1.10337265e-10
1.12895928e-10
1.15501302e-10
1.17800456e-10
1.20188061e-10
1.22259944e-10
1.24459541e-10
1.26329589e-10
1.28365648e-10
1.30055937e-10
1.31948542e-10
1.33477446e-10
1.35243578e-10
1.36626199e-10
1.38279868e-10
1.39531189e-10
1.41084513e-10
1.42214864e-10
1.43677186e-10
1.44699082e-10
1.46079094e-10
1.46999049e-10
1.48303393e-10
1.49133716e-10
1.50368975e-10
1.51113393e-10
1.52283549e-10
1.52953334e-10
1.54063319e-10
1.54659614e-10
1.5571234e-10
1.56247599e-10
1.57247148e-10
1.5772062e-10
1.58668119e-10
1.59091638e-10
1.59990319e-10
1.6036117e-10
1.61211956e-10
1.61543849e-10
1.62349789e-10
1.62638637e-10
1.63399314e-10
1.63657969e-10
1.64376021e-10
1.64598804e-10
1.6527432e-10
1.65475869e-10
1.66111585e-10
1.66285378e-10
1.66880144e-10
1.67038785e-10
1.67595157e-10
1.67730841e-10
1.68248799e-10
1.68377197e-10
1.68859909e-10
1.68971377e-10
1.6941747e-10
1.69527722e-10
1.69938645e-10
1.70037062e-10
1.70409943e-10
1.70511285e-10
1.70846784e-10
1.70942566e-10
1.71238591e-10
1.71340621e-10
1.71601078e-10
1.71702919e-10
1.71931483e-10
1.72047908e-10
1.72250016e-10
1.72376082e-10
1.72555401e-10
1.72693385e-10
1.7285957e-10
1.73010377e-10
1.73163083e-10
1.73334785e-10
)
;

boundaryField
{
    left
    {
        type            wedge;
        value           nonuniform List<scalar> 
100
(
1.32852644e-05
1.2029175e-05
1.0932231e-05
9.98292691e-06
9.15331259e-06
8.42400297e-06
7.77918467e-06
7.20615632e-06
6.69453391e-06
6.23574582e-06
5.82266344e-06
5.44931813e-06
5.11068181e-06
4.8024954e-06
4.52113218e-06
4.26348887e-06
4.02689887e-06
3.8090604e-06
3.60797861e-06
3.42191884e-06
3.24936656e-06
3.088995e-06
2.93963866e-06
2.80026998e-06
2.66998036e-06
2.54796457e-06
2.43350664e-06
2.32596825e-06
2.22477933e-06
2.12942915e-06
2.03945901e-06
1.95445643e-06
1.87404932e-06
1.79790126e-06
1.72570786e-06
1.65719278e-06
1.59210469e-06
1.53021487e-06
1.47131445e-06
1.41521255e-06
1.36173428e-06
1.31071934e-06
1.2620204e-06
1.21550177e-06
1.17103855e-06
1.12851537e-06
1.08782551e-06
1.0488703e-06
1.01155821e-06
9.7580423e-07
9.41529442e-07
9.08660355e-07
8.7712843e-07
8.46869845e-07
8.17824932e-07
7.8993785e-07
7.63156437e-07
7.37431762e-07
7.12717884e-07
6.88971765e-07
6.66152912e-07
6.44223192e-07
6.23146791e-07
6.02889903e-07
5.83420678e-07
5.64708999e-07
5.46726498e-07
5.29446321e-07
5.12843032e-07
4.96892622e-07
4.81572316e-07
4.66860495e-07
4.52736721e-07
4.39181567e-07
4.2617656e-07
4.13704208e-07
4.0174786e-07
3.90291655e-07
3.79320559e-07
3.68820238e-07
3.58777021e-07
3.49177938e-07
3.40010606e-07
3.31263204e-07
3.2292451e-07
3.14983799e-07
3.07430823e-07
3.00255851e-07
2.93449569e-07
2.87003104e-07
2.80907958e-07
2.75156046e-07
2.6973959e-07
2.64651036e-07
2.59882921e-07
2.55427405e-07
2.5127537e-07
2.47414653e-07
2.43826664e-07
2.40475243e-07
)
;
    }
    right
    {
        type            wedge;
        value           nonuniform List<scalar> 
100
(
-1.32852751e-05
-1.20291847e-05
-1.09322398e-05
-9.98293495e-06
-9.15331996e-06
-8.42400975e-06
-7.77919093e-06
-7.20616212e-06
-6.6945393e-06
-6.23575085e-06
-5.82266813e-06
-5.44932251e-06
-5.11068593e-06
-4.80249926e-06
-4.52113582e-06
-4.2634923e-06
-4.02690211e-06
-3.80906347e-06
-3.60798152e-06
-3.42192159e-06
-3.24936917e-06
-3.08899749e-06
-2.93964103e-06
-2.80027224e-06
-2.66998251e-06
-2.54796662e-06
-2.4335086e-06
-2.32597012e-06
-2.22478113e-06
-2.12943087e-06
-2.03946065e-06
-1.95445801e-06
-1.87405083e-06
-1.79790271e-06
-1.72570925e-06
-1.65719411e-06
-1.59210597e-06
-1.5302161e-06
-1.47131563e-06
-1.41521369e-06
-1.36173537e-06
-1.3107204e-06
-1.26202142e-06
-1.21550275e-06
-1.17103949e-06
-1.12851628e-06
-1.08782638e-06
-1.04887114e-06
-1.01155903e-06
-9.75805016e-07
-9.415302e-07
-9.08661087e-07
-8.77129136e-07
-8.46870527e-07
-8.1782559e-07
-7.89938486e-07
-7.63157051e-07
-7.37432355e-07
-7.12718458e-07
-6.8897232e-07
-6.66153449e-07
-6.44223711e-07
-6.23147293e-07
-6.02890389e-07
-5.83421147e-07
-5.64709453e-07
-5.46726938e-07
-5.29446747e-07
-5.12843445e-07
-4.96893022e-07
-4.81572703e-07
-4.66860871e-07
-4.52737086e-07
-4.39181921e-07
-4.26176903e-07
-4.13704541e-07
-4.01748183e-07
-3.90291969e-07
-3.79320865e-07
-3.68820535e-07
-3.5877731e-07
-3.49178219e-07
-3.4001088e-07
-3.31263471e-07
-3.2292477e-07
-3.14984052e-07
-3.07431071e-07
-3.00256093e-07
-2.93449805e-07
-2.87003335e-07
-2.80908184e-07
-2.75156268e-07
-2.69739807e-07
-2.64651249e-07
-2.59883131e-07
-2.55427611e-07
-2.51275573e-07
-2.47414852e-07
-2.43826861e-07
-2.40475436e-07
)
;
    }
    outerWall
    {
        type            calculated;
        value           uniform 1.73528453e-10;
    }
    innerWall
    {
        type            calculated;
        value           uniform 0;
    }
    frontAndBack
    {
        type            empty;
        value           nonuniform List<scalar> 0();
    }
}


// ************************************************************************* //
