/*--------------------------------*- C++ -*----------------------------------*\
| =========                 |                                                 |
| \\      /  F ield         | OpenFOAM: The Open Source CFD Toolbox           |
|  \\    /   O peration     | Version:  2206                                  |
|   \\  /    A nd           | Website:  www.openfoam.com                      |
|    \\/     M anipulation  |                                                 |
\*---------------------------------------------------------------------------*/
FoamFile
{
    version     2.0;
    format      ascii;
    arch        "LSB;label=32;scalar=64";
    class       volVectorField;
    location    "500";
    object      U;
}
// * * * * * * * * * * * * * * * * * * * * * * * * * * * * * * * * * * * * * //

dimensions      [0 1 -1 0 0 0 0];

internalField   nonuniform List<vector> 
100
(
(0.012196489 0.59045667 0)
(-0.00392116138 0.534630431 0)
(0.000818101176 0.485877323 0)
(-0.000210818186 0.443685998 0)
(-1.54509126e-05 0.40681422 0)
(-3.40179733e-05 0.374400433 0)
(-2.54195609e-05 0.345741819 0)
(-2.07537411e-05 0.320273871 0)
(-1.67083348e-05 0.29753508 0)
(-1.33984348e-05 0.277144482 7.30678856e-20)
(-1.06458101e-05 0.25878525 -7.71026129e-20)
(-8.35300355e-06 0.242192111 0)
(-6.43774385e-06 0.227141598 0)
(-4.83400362e-06 0.213444413 8.62923721e-20)
(-3.48865949e-06 0.200939367 0)
(-2.3583085e-06 0.189488548 0)
(-1.40763264e-06 0.178973428 0)
(-6.07363427e-07 0.169291707 0)
(6.6437546e-08 0.160354735 0)
(6.33940381e-07 0.152085405 0)
(1.11165317e-06 0.144416405 0)
(1.51363802e-06 0.137288778 0)
(1.85136652e-06 0.130650713 0)
(2.13479163e-06 0.124456542 0)
(2.37197704e-06 0.11866589 0)
(2.57001443e-06 0.113242962 0)
(2.73458191e-06 0.108155936 0)
(2.87079219e-06 0.10337645 0)
(2.98267536e-06 0.0988791617 0)
(3.07393525e-06 0.0946413703 0)
(3.14744252e-06 0.0906426962 0)
(3.20590447e-06 0.0868648009 0)
(3.25136041e-06 0.0832911465 0)
(3.28581496e-06 0.0799067874 0)
(3.31074831e-06 0.0766981892 0)
(3.32762942e-06 0.0736530705 0)
(3.33749942e-06 0.0707602659 0)
(3.3414691e-06 0.0680096048 0)
(3.34032057e-06 0.0653918062 0)
(3.33486128e-06 0.0628983854 0)
(3.32562552e-06 0.0605215725 0)
(3.31325009e-06 0.0582542403 0)
(3.29817223e-06 0.0560898399 0)
(3.28083131e-06 0.0540223447 0)
(3.26150571e-06 0.0520462001 0)
(3.24055461e-06 0.0501562783 0)
(3.21824256e-06 0.0483478395 0)
(3.19479376e-06 0.0466164955 0)
(3.17035833e-06 0.0449581784 0)
(3.14514324e-06 0.0433691121 0)
(3.11933738e-06 0.0418457869 0)
(3.09303211e-06 0.0403849365 0)
(3.06631817e-06 0.0389835174 0)
(3.03929454e-06 0.0376386903 0)
(3.01211554e-06 0.0363478034 0)
(2.98478604e-06 0.0351083774 0)
(2.95737173e-06 0.0339180914 0)
(2.92991351e-06 0.0327747708 0)
(2.90256291e-06 0.0316763761 0)
(2.87526461e-06 0.0306209922 0)
(2.84807936e-06 0.0296068195 0)
(2.82099317e-06 0.0286321651 0)
(2.79415767e-06 0.0276954354 0)
(2.76747599e-06 0.0267951286 0)
(2.74101114e-06 0.0259298284 0)
(2.71472567e-06 0.0250981981 0)
(2.68878129e-06 0.0242989752 6.207464e-20)
(2.66305256e-06 0.0235309662 0)
(2.63760925e-06 0.0227930421 0)
(2.61238016e-06 0.0220841345 0)
(2.58752686e-06 0.0214032309 0)
(2.56290743e-06 0.0207493722 5.88121842e-20)
(2.53859433e-06 0.0201216484 0)
(2.51451604e-06 0.0195191962 0)
(2.49084649e-06 0.0189411958 0)
(2.46742931e-06 0.0183868686 -5.6398347e-20)
(2.44433513e-06 0.0178554745 0)
(2.42147878e-06 0.0173463099 0)
(2.39903754e-06 0.0168587052 0)
(2.37683743e-06 0.0163920235 0)
(2.35495968e-06 0.0159456583 0)
(2.33329675e-06 0.0155190321 0)
(2.31203469e-06 0.0151115944 0)
(2.29098713e-06 0.014722821 -5.20420695e-20)
(2.27026441e-06 0.0143522121 0)
(2.24973371e-06 0.013999291 0)
(2.22958682e-06 0.0136636032 0)
(2.2096461e-06 0.0133447153 5.0075707e-20)
(2.1900317e-06 0.0130422136 0)
(2.17063451e-06 0.0127557036 0)
(2.15166665e-06 0.0124848083 0)
(2.13304588e-06 0.0122291675 4.82355588e-20)
(2.11487688e-06 0.0119884357 0)
(2.09625628e-06 0.0117622778 0)
(2.07517441e-06 0.0115503614 0)
(2.05298844e-06 0.0113523381 4.65113678e-20)
(2.05499155e-06 0.0111678033 0)
(2.14201351e-06 0.0109962157 0)
(2.22578984e-06 0.0108367492 0)
(1.64129941e-06 0.0106877972 0)
)
;

boundaryField
{
    left
    {
        type            wedge;
    }
    right
    {
        type            wedge;
    }
    outerWall
    {
        type            navierSlip;
        value           uniform (0 0.0106638434 0);
        slipLength      uniform 1;
        wallVelocity    uniform (0 0 0);
    }
    innerWall
    {
        type            rotatingWallVelocity;
        origin          (0 0 0);
        axis            (0 0 1);
        omega           constant 12.566;
        value           uniform (0 0.628204307 -0);
    }
    frontAndBack
    {
        type            empty;
    }
}


// ************************************************************************* //
