/*--------------------------------*- C++ -*----------------------------------*\
| =========                 |                                                 |
| \\      /  F ield         | OpenFOAM: The Open Source CFD Toolbox           |
|  \\    /   O peration     | Version:  2206                                  |
|   \\  /    A nd           | Website:  www.openfoam.com                      |
|    \\/     M anipulation  |                                                 |
\*---------------------------------------------------------------------------*/
FoamFile
{
    version     2.0;
    format      ascii;
    arch        "LSB;label=32;scalar=64";
    class       volScalarField;
    location    "220";
    object      p;
}
// * * * * * * * * * * * * * * * * * * * * * * * * * * * * * * * * * * * * * //

dimensions      [0 2 -2 0 0 0 0];

internalField   nonuniform List<scalar> 
100000
(
6.4707e-10
1.79017e-08
1.65997e-08
1.29174e-08
1.05649e-08
1.86006e-08
1.31357e-08
2.40851e-08
3.16436e-08
4.80237e-08
6.22913e-08
7.76961e-08
9.73305e-08
1.18887e-07
1.44573e-07
1.71342e-07
1.95161e-07
2.26737e-07
2.5628e-07
2.93438e-07
3.27852e-07
3.63116e-07
4.01988e-07
4.43219e-07
4.87086e-07
5.34288e-07
5.82618e-07
6.27973e-07
6.80705e-07
7.31854e-07
7.89773e-07
8.45969e-07
9.01499e-07
9.6252e-07
1.02346e-06
1.08994e-06
1.15567e-06
1.21995e-06
1.29033e-06
1.36013e-06
1.43587e-06
1.51052e-06
1.58398e-06
1.66335e-06
1.74227e-06
1.82702e-06
1.91075e-06
1.99325e-06
2.08168e-06
2.16963e-06
2.26345e-06
2.3562e-06
2.44777e-06
2.54522e-06
2.64224e-06
2.74505e-06
2.84689e-06
2.94742e-06
3.05399e-06
3.15994e-06
3.27193e-06
3.38262e-06
3.4924e-06
3.60773e-06
3.72303e-06
3.84365e-06
3.96384e-06
4.08208e-06
4.20714e-06
4.33061e-06
4.46128e-06
4.58927e-06
4.718e-06
4.85031e-06
4.98495e-06
5.12214e-06
5.26268e-06
5.40422e-06
5.54284e-06
5.6888e-06
5.8331e-06
5.98425e-06
6.13349e-06
6.28222e-06
6.4363e-06
6.59036e-06
6.74991e-06
6.90869e-06
7.06601e-06
7.22946e-06
7.39226e-06
7.56106e-06
7.72866e-06
7.89516e-06
8.0675e-06
8.23941e-06
8.41716e-06
8.59383e-06
8.76932e-06
8.95069e-06
9.13162e-06
9.31836e-06
9.50409e-06
9.68853e-06
9.87901e-06
1.00688e-05
1.02647e-05
1.04593e-05
1.0653e-05
1.08522e-05
1.10514e-05
1.12559e-05
1.146e-05
1.16621e-05
1.1871e-05
1.20784e-05
1.22929e-05
1.25048e-05
1.27174e-05
1.29336e-05
1.31521e-05
1.33731e-05
1.35975e-05
1.38229e-05
1.40454e-05
1.42752e-05
1.45034e-05
1.47384e-05
1.49715e-05
1.52041e-05
1.5442e-05
1.568e-05
1.59234e-05
1.6166e-05
1.64072e-05
1.66545e-05
1.69011e-05
1.71538e-05
1.74052e-05
1.76556e-05
1.79118e-05
1.81676e-05
1.84291e-05
1.86897e-05
1.8949e-05
1.92142e-05
1.9479e-05
1.97496e-05
2.00191e-05
2.02875e-05
2.05617e-05
2.08355e-05
2.11151e-05
2.13937e-05
2.1671e-05
2.19544e-05
2.2237e-05
2.25258e-05
2.28132e-05
2.30998e-05
2.33919e-05
2.36839e-05
2.39813e-05
2.42782e-05
2.45732e-05
2.4875e-05
2.51752e-05
2.54826e-05
2.57873e-05
2.60928e-05
2.64018e-05
2.67132e-05
2.7027e-05
2.73443e-05
2.76626e-05
2.79779e-05
2.83006e-05
2.86216e-05
2.89495e-05
2.92754e-05
2.96009e-05
2.99317e-05
3.02624e-05
3.05987e-05
3.09342e-05
3.12682e-05
3.16084e-05
3.19479e-05
3.22934e-05
3.26377e-05
3.29809e-05
3.33299e-05
3.36785e-05
3.4033e-05
3.43864e-05
3.47386e-05
3.50966e-05
3.54543e-05
3.58177e-05
3.61801e-05
3.65413e-05
3.69084e-05
3.7275e-05
3.76476e-05
3.80188e-05
3.83892e-05
3.87651e-05
3.9141e-05
3.95222e-05
3.99029e-05
4.02817e-05
4.06674e-05
4.10514e-05
4.14427e-05
4.18312e-05
4.22205e-05
4.26134e-05
4.30086e-05
4.34063e-05
4.38074e-05
4.42095e-05
4.46087e-05
4.50152e-05
4.54201e-05
4.58318e-05
4.62415e-05
4.66508e-05
4.70654e-05
4.748e-05
4.79002e-05
4.83195e-05
4.87373e-05
4.91613e-05
4.95847e-05
5.0014e-05
5.04421e-05
5.08692e-05
5.1302e-05
5.17345e-05
5.21728e-05
5.261e-05
5.3046e-05
5.34879e-05
5.39293e-05
5.43767e-05
5.48229e-05
5.52679e-05
5.57188e-05
5.61693e-05
5.66256e-05
5.70809e-05
5.75348e-05
5.79949e-05
5.84542e-05
5.89197e-05
5.93838e-05
5.9847e-05
6.03158e-05
6.07845e-05
6.12586e-05
6.17322e-05
6.22038e-05
6.26823e-05
6.31592e-05
6.36433e-05
6.41246e-05
6.46068e-05
6.50925e-05
6.55806e-05
6.60711e-05
6.65651e-05
6.706e-05
6.75521e-05
6.80514e-05
6.85491e-05
6.90537e-05
6.95563e-05
7.00584e-05
7.05659e-05
7.10733e-05
7.15863e-05
7.20984e-05
7.26092e-05
7.3126e-05
7.36422e-05
7.41644e-05
7.46853e-05
7.52052e-05
7.5731e-05
7.62562e-05
7.67874e-05
7.73174e-05
7.78463e-05
7.8381e-05
7.89153e-05
7.94555e-05
7.99946e-05
8.05324e-05
8.10762e-05
8.16194e-05
8.21687e-05
8.27167e-05
8.32637e-05
8.38163e-05
8.43689e-05
8.49268e-05
8.54842e-05
8.60397e-05
8.6602e-05
8.71627e-05
8.77306e-05
8.82958e-05
8.88618e-05
8.94313e-05
9.00033e-05
9.05776e-05
9.11555e-05
9.17342e-05
9.23101e-05
9.28932e-05
9.34748e-05
9.40632e-05
9.46496e-05
9.52356e-05
9.58269e-05
9.64182e-05
9.70149e-05
9.76109e-05
9.82055e-05
9.88061e-05
9.94061e-05
0.000100012
0.000100617
0.000101221
0.00010183
0.000102439
0.000103054
0.000103668
0.000104281
0.0001049
0.000105518
0.000106142
0.000106764
0.000107386
0.000108014
0.000108641
0.000109274
0.000109906
0.000110537
0.000111173
0.000111809
0.000112451
0.000113092
0.000113732
0.000114378
0.000115023
0.000115674
0.000116324
0.000116972
0.000117627
0.000118281
0.000118942
0.0001196
0.000120259
0.000120921
0.000121586
0.000122253
0.000122924
0.000123595
0.000124264
0.00012494
0.000125614
0.000126296
0.000126975
0.000127654
0.000128338
0.000129022
0.000129712
0.0001304
0.000131088
0.000131781
0.000132474
0.000133173
0.000133871
0.000134567
0.00013527
0.000135972
0.000136679
0.000137386
0.000138092
0.000138803
0.000139514
0.000140231
0.000140947
0.000141661
0.000142382
0.000143102
0.000143828
0.000144552
0.000145276
0.000146005
0.000146734
0.000147469
0.000148203
0.000148935
0.000149674
0.000150412
0.000151156
0.000151898
0.000152641
0.000153387
0.000154136
0.000154887
0.000155641
0.000156396
0.000157149
0.000157909
0.000158667
0.000159432
0.000160195
0.000160958
0.000161726
0.000162494
0.000163267
0.00016404
0.000164811
0.000165589
0.000166365
0.000167148
0.000167929
0.00016871
0.000169496
0.000170282
0.000171073
0.000171864
0.000172653
0.000173449
0.000174243
0.000175044
0.000175844
0.000176642
0.000177446
0.00017825
0.00017906
0.000179868
0.000180676
0.000181489
0.000182302
0.000183121
0.000183938
0.000184755
0.000185577
0.000186399
0.000187226
0.000188053
0.000188878
0.00018971
0.00019054
0.000191378
0.000192212
0.000193048
0.000193887
0.000194728
0.000195572
0.00019642
0.000197268
0.000198113
0.000198966
0.000199817
0.000200675
0.000201531
0.000202386
0.000203247
0.000204108
0.000204974
0.00020584
0.000206704
0.000207574
0.000208444
0.000209319
0.000210193
0.000211067
0.000211946
0.000212824
0.000213709
0.000214592
0.000215475
0.000216363
0.00021725
0.000218144
0.000219036
0.000219927
0.000220825
0.000221721
0.000222624
0.000223525
0.000224425
0.000225331
0.000226237
0.000227149
0.000228059
0.000228968
0.000229884
0.000230798
0.000231719
0.000232638
0.000233557
0.00023448
0.000235405
0.000236333
0.000237264
0.000238196
0.000239125
0.000240062
0.000240997
0.000241939
0.000242878
0.000243818
0.000244762
0.000245707
0.000246657
0.000247606
0.000248554
0.000249508
0.000250462
0.000251421
0.000252379
0.000253336
0.000254299
0.000255262
0.00025623
0.000257197
0.000258163
0.000259135
0.000260107
0.000261084
0.00026206
0.000263035
0.000264016
0.000264997
0.000265983
0.000266968
0.000267952
0.000268942
0.000269932
0.000270927
0.000271921
0.000272915
0.000273913
0.000274912
0.000275916
0.00027692
0.000277922
0.00027893
0.000279937
0.000280951
0.000281962
0.000282975
0.00028399
0.000285008
0.000286029
0.000287053
0.000288078
0.0002891
0.000290129
0.000291157
0.000292192
0.000293224
0.000294257
0.000295294
0.000296332
0.000297374
0.000298417
0.000299457
0.000300504
0.00030155
0.000302603
0.000303654
0.000304704
0.000305759
0.000306815
0.000307876
0.000308936
0.000309995
0.00031106
0.000312124
0.000313194
0.000314263
0.000315331
0.000316405
0.000317478
0.000318557
0.000319635
0.000320712
0.000321795
0.000322878
0.000323966
0.000325053
0.000326138
0.000327231
0.000328322
0.00032942
0.000330515
0.000331611
0.00033271
0.000333812
0.000334917
0.000336025
0.000337133
0.000338239
0.000339352
0.000340464
0.000341582
0.000342699
0.000343815
0.000344936
0.000346057
0.000347184
0.00034831
0.000349435
0.000350565
0.000351696
0.000352832
0.000353966
0.0003551
0.00035624
0.000357379
0.000358524
0.000359668
0.00036081
0.000361959
0.000363107
0.000364261
0.000365414
0.000366566
0.000367723
0.000368881
0.000370044
0.000371206
0.000372366
0.000373533
0.000374699
0.000375871
0.000377042
0.000378212
0.000379387
0.000380563
0.000381744
0.000382924
0.000384102
0.000385287
0.000386471
0.000387662
0.00038885
0.000390039
0.000391231
0.000392426
0.000393623
0.000394824
0.000396025
0.000397224
0.00039843
0.000399635
0.000400846
0.000402055
0.000403264
0.000404478
0.000405692
0.000406912
0.000408131
0.000409348
0.000410572
0.000411795
0.000413024
0.000414251
0.000415478
0.00041671
0.000417942
0.00041918
0.000420417
0.000421652
0.000422894
0.000424135
0.000425382
0.000426627
0.000427872
0.000429122
0.000430372
0.000431628
0.000432883
0.000434137
0.000435396
0.000436655
0.00043792
0.000439184
0.000440446
0.000441715
0.000442983
0.000444257
0.000445529
0.000446802
0.000448078
0.000449357
0.000450638
0.000451922
0.000453208
0.00045449
0.00045578
0.000457068
0.000458363
0.000459657
0.000460949
0.000462247
0.000463545
0.000464849
0.000466151
0.000467453
0.00046876
0.000470067
0.000471379
0.000472691
0.000474001
0.000475318
0.000476633
0.000477955
0.000479276
0.000480595
0.00048192
0.000483245
0.000484576
0.000485905
0.000487234
0.000488568
0.000489902
0.000491242
0.00049258
0.000493918
0.000495261
0.000496604
0.000497953
0.0004993
0.000500647
0.000501999
0.000503351
0.000504708
0.000506065
0.00050742
0.000508782
0.000510142
0.00051151
0.000512875
0.00051424
0.000515609
0.000516981
0.000518355
0.000519732
0.00052111
0.000522486
0.000523868
0.000525249
0.000526637
0.000528023
0.000529409
0.0005308
0.000532191
0.000533587
0.000534982
0.000536376
0.000537777
0.000539176
0.000540582
0.000541986
0.000543389
0.000544798
0.000546207
0.000547622
0.000549035
0.000550447
0.000551865
0.000553283
0.000554707
0.000556129
0.00055755
0.000558977
0.000560404
0.000561837
0.000563268
0.000564698
0.000566134
0.00056757
0.000569012
0.000570452
0.000571891
0.000573337
0.000574781
0.000576232
0.000577681
0.00057913
0.000580583
0.000582038
0.000583496
0.000584957
0.000586419
0.000587879
0.000589345
0.00059081
0.000592282
0.000593752
0.000595221
0.000596696
0.00059817
0.000599651
0.00060113
0.000602608
0.000604092
0.000605575
0.000607065
0.000608553
0.00061004
0.000611533
0.000613025
0.000614524
0.000616021
0.000617517
0.000619019
0.00062052
0.000622028
0.000623534
0.000625039
0.00062655
0.000628061
0.000629577
0.000631092
0.000632606
0.000634126
0.000635646
0.000637171
0.000638695
0.000640219
0.000641747
0.000643276
0.00064481
0.000646344
0.000647876
0.000649414
0.000650951
0.000652495
0.000654037
0.000655579
0.000657125
0.000658673
0.000660223
0.000661777
0.000663332
0.000664884
0.000666444
0.000668002
0.000669566
0.000671129
0.000672691
0.000674259
0.000675826
0.000677399
0.000678971
0.000680542
0.000682119
0.000683695
0.000685277
0.000686858
0.000688438
0.000690024
0.000691609
0.000693201
0.000694791
0.00069638
0.000697974
0.000699569
0.000701169
0.000702768
0.000704366
0.00070597
0.000707573
0.000709182
0.00071079
0.000712397
0.00071401
0.000715623
0.000717241
0.000718858
0.000720474
0.000722096
0.000723717
0.000725345
0.00072697
0.000728596
0.000730226
0.000731858
0.000733492
0.00073513
0.000736769
0.000738404
0.000740048
0.000741689
0.000743338
0.000744984
0.00074663
0.000748282
0.000749933
0.00075159
0.000753246
0.0007549
0.000756561
0.000758221
0.000759887
0.000761552
0.000763216
0.000764885
0.000766555
0.00076823
0.000769903
0.000771576
0.000773255
0.000774933
0.000776617
0.0007783
0.000779982
0.000781669
0.000783357
0.00078505
0.000786742
0.000788432
0.000790129
0.000791825
0.000793527
0.000795228
0.000796928
0.000798633
0.000800339
0.00080205
0.00080376
0.000805468
0.000807184
0.000808897
0.000810618
0.000812336
0.000814055
0.000815777
0.000817502
0.000819229
0.00082096
0.000822692
0.000824421
0.000826157
0.000827891
0.000829632
0.000831372
0.000833111
0.000834855
0.000836599
0.000838349
0.000840097
0.000841845
0.000843598
0.000845351
0.00084711
0.000848868
0.000850625
0.000852387
0.000854149
0.000855917
0.000857684
0.000859449
0.000861221
0.000862992
0.000864768
0.000866544
0.000868319
0.000870099
0.000871879
0.000873665
0.00087545
0.000877234
0.000879023
0.000880812
0.000882607
0.000884401
0.000886193
0.000887992
0.00088979
0.000891594
0.000893396
0.000895199
0.000897005
0.000898814
0.000900625
0.00090244
0.000904255
0.000906068
0.000907887
0.000909706
0.000911531
0.000913354
0.000915177
0.000917005
0.000918833
0.000920666
0.000922499
0.00092433
0.000926168
0.000928004
0.000929847
0.000931689
0.000933529
0.000935375
0.000937221
0.000939073
0.000940923
0.000942773
0.000944628
0.000946483
0.000948344
0.000950203
0.000952062
0.000953926
0.00095579
0.00095766
0.000959528
0.000961396
0.000963269
0.000965142
0.000967021
0.000968898
0.000970775
0.000972657
0.000974539
0.000976426
0.000978313
0.000980198
0.00098209
0.000983981
0.000985878
0.000987773
0.000989668
0.000991567
0.000993469
0.000995373
0.00099728
0.000999189
0.00100109
0.00100301
0.00100492
0.00100684
0.00100875
0.00101067
0.00101259
0.00101451
0.00101644
0.00101836
0.00102029
0.00102222
0.00102414
0.00102608
0.00102801
0.00102995
0.00103189
0.00103383
0.00103577
0.00103771
0.00103966
0.0010416
0.00104355
0.00104551
0.00104746
0.00104941
0.00105137
0.00105332
0.00105529
0.00105725
0.00105921
0.00106117
0.00106314
0.00106511
0.00106708
0.00106905
0.00107103
0.001073
0.00107498
0.00107696
0.00107894
0.00108092
0.00108291
0.0010849
0.00108689
0.00108888
0.00109087
0.00109286
0.00109486
0.00109686
0.00109886
0.00110086
0.00110287
0.00110487
0.00110688
0.00110889
0.0011109
0.00111291
0.00111492
0.00111694
0.00111896
0.00112098
0.001123
0.00112502
0.00112705
0.00112908
0.00113111
0.00113314
0.00113517
0.00113721
0.00113924
0.00114128
0.00114332
0.00114536
0.00114741
0.00114945
0.0011515
0.00115355
0.0011556
0.00115765
0.00115971
0.00116176
0.00116382
0.00116588
0.00116794
0.00117
0.00117207
0.00117413
0.0011762
0.00117828
0.00118035
0.00118242
0.00118449
0.00118657
0.00118865
0.00119074
0.00119282
0.0011949
0.00119699
0.00119908
0.00120118
0.00120327
0.00120536
0.00120746
0.00120956
0.00121166
0.00121376
0.00121586
0.00121797
0.00122008
0.00122219
0.0012243
0.00122641
0.00122852
0.00123064
0.00123276
0.00123488
0.001237
0.00123913
0.00124125
0.00124338
0.00124551
0.00124764
0.00124977
0.0012519
0.00125404
0.00125618
0.00125832
0.00126046
0.0012626
0.00126475
0.0012669
0.00126904
0.0012712
0.00127335
0.00127551
0.00127766
0.00127982
0.00128198
0.00128414
0.0012863
0.00128847
0.00129064
0.00129281
0.00129498
0.00129715
0.00129933
0.00130151
0.00130368
0.00130586
0.00130804
0.00131023
0.00131242
0.0013146
0.00131679
0.00131898
0.00132118
0.00132337
0.00132557
0.00132777
0.00132997
0.00133217
0.00133438
0.00133658
0.00133879
0.00134099
0.00134321
0.00134542
0.00134763
0.00134985
0.00135207
0.00135429
0.00135651
0.00135873
0.00136096
0.00136319
0.00136542
0.00136765
0.00136988
0.00137212
0.00137435
0.00137659
0.00137883
0.00138107
0.00138332
0.00138556
0.00138781
0.00139006
0.00139231
0.00139456
0.00139681
0.00139907
0.00140133
0.00140359
0.00140585
0.00140812
0.00141038
0.00141265
0.00141492
0.00141719
0.00141947
0.00142174
0.00142402
0.0014263
0.00142858
0.00143086
0.00143314
0.00143543
0.00143772
0.00144001
0.0014423
0.00144459
0.00144689
0.00144919
0.00145148
0.00145378
0.00145608
0.00145839
0.0014607
0.001463
0.00146531
0.00146762
0.00146994
0.00147225
0.00147457
0.00147689
0.00147921
0.00148153
0.00148385
0.00148618
0.00148851
0.00149083
0.00149317
0.0014955
0.00149783
0.00150017
0.00150251
0.00150485
0.00150719
0.00150954
0.00151188
0.00151423
0.00151658
0.00151893
0.00152129
0.00152364
0.001526
0.00152836
0.00153072
0.00153308
0.00153544
0.00153781
0.00154018
0.00154255
0.00154492
0.00154729
0.00154967
0.00155204
0.00155443
0.00155681
0.00155919
0.00156157
0.00156396
0.00156635
0.00156874
0.00157113
0.00157352
0.00157591
0.00157831
0.00158071
0.00158311
0.00158551
0.00158792
0.00159032
0.00159273
0.00159514
0.00159755
0.00159996
0.00160238
0.0016048
0.00160721
0.00160963
0.00161205
0.00161448
0.00161691
0.00161933
0.00162176
0.00162419
0.00162663
0.00162906
0.0016315
0.00163394
0.00163638
0.00163882
0.00164127
0.00164372
0.00164616
0.00164861
0.00165106
0.00165352
0.00165598
0.00165843
0.00166089
0.00166335
0.00166582
0.00166828
0.00167074
0.00167321
0.00167568
0.00167816
0.00168063
0.0016831
0.00168558
0.00168806
0.00169054
0.00169302
0.0016955
0.00169799
0.00170048
0.00170297
0.00170546
0.00170795
0.00171045
0.00171294
0.00171545
0.00171795
0.00172045
0.00172295
0.00172546
0.00172797
0.00173048
0.00173298
0.0017355
0.00173801
0.00174053
0.00174305
0.00174557
0.00174809
0.00175062
0.00175314
0.00175568
0.00175821
0.00176074
0.00176327
0.00176581
0.00176835
0.00177088
0.00177342
0.00177597
0.00177851
0.00178106
0.00178361
0.00178616
0.00178871
0.00179126
0.00179382
0.00179638
0.00179893
0.00180149
0.00180406
0.00180662
0.00180919
0.00181175
0.00181433
0.0018169
0.00181947
0.00182205
0.00182462
0.0018272
0.00182978
0.00183237
0.00183495
0.00183753
0.00184012
0.00184271
0.00184531
0.0018479
0.00185049
0.00185309
0.00185569
0.00185829
0.00186089
0.0018635
0.0018661
0.00186871
0.00187132
0.00187393
0.00187655
0.00187916
0.00188178
0.0018844
0.00188702
0.00188965
0.00189227
0.0018949
0.00189752
0.00190016
0.00190279
0.00190542
0.00190806
0.00191069
0.00191333
0.00191598
0.00191862
0.00192126
0.00192391
0.00192656
0.00192921
0.00193186
0.00193451
0.00193717
0.00193983
0.00194249
0.00194514
0.00194781
0.00195047
0.00195314
0.00195581
0.00195848
0.00196115
0.00196382
0.0019665
0.00196918
0.00197185
0.00197453
0.00197721
0.0019799
0.00198259
0.00198527
0.00198796
0.00199066
0.00199335
0.00199605
0.00199875
0.00200144
0.00200415
0.00200685
0.00200956
0.00201226
0.00201497
0.00201768
0.00202039
0.00202311
0.00202582
0.00202854
0.00203126
0.00203398
0.00203671
0.00203943
0.00204215
0.00204488
0.00204761
0.00205035
0.00205308
0.00205582
0.00205855
0.00206129
0.00206404
0.00206678
0.00206952
0.00207227
0.00207502
0.00207777
0.00208052
0.00208327
0.00208603
0.00208878
0.00209155
0.00209431
0.00209707
0.00209983
0.0021026
0.00210537
0.00210814
0.00211091
0.00211368
0.00211646
0.00211924
0.00212202
0.0021248
0.00212758
0.00213036
0.00213315
0.00213594
0.00213873
0.00214152
0.00214432
0.00214711
0.00214991
0.00215271
0.00215551
0.00215832
0.00216112
0.00216393
0.00216674
0.00216955
0.00217236
0.00217517
0.00217799
0.00218081
0.00218363
0.00218645
0.00218927
0.0021921
0.00219493
0.00219775
0.00220058
0.00220341
0.00220625
0.00220909
0.00221192
0.00221476
0.0022176
0.00222045
0.00222329
0.00222614
0.00222899
0.00223183
0.00223469
0.00223754
0.0022404
0.00224325
0.00224611
0.00224898
0.00225184
0.0022547
0.00225757
0.00226044
0.00226331
0.00226618
0.00226905
0.00227193
0.0022748
0.00227768
0.00228057
0.00228345
0.00228633
0.00228922
0.00229211
0.002295
0.0022979
0.00230079
0.00230369
0.00230658
0.00230949
0.00231239
0.00231529
0.00231819
0.0023211
0.00232401
0.00232692
0.00232983
0.00233275
0.00233566
0.00233858
0.0023415
0.00234442
0.00234735
0.00235027
0.0023532
0.00235613
0.00235905
0.00236199
0.00236492
0.00236786
0.0023708
0.00237373
0.00237668
0.00237962
0.00238257
0.00238551
0.00238846
0.00239141
0.00239436
0.00239732
0.00240027
0.00240323
0.00240619
0.00240915
0.00241211
0.00241508
0.00241805
0.00242101
0.00242399
0.00242696
0.00242994
0.00243291
0.00243589
0.00243887
0.00244185
0.00244484
0.00244782
0.00245081
0.0024538
0.00245679
0.00245978
0.00246278
0.00246577
0.00246877
0.00247177
0.00247477
0.00247777
0.00248078
0.00248379
0.00248679
0.00248981
0.00249282
0.00249583
0.00249885
0.00250186
0.00250489
0.00250791
0.00251093
0.00251395
0.00251698
0.00252001
0.00252304
0.00252607
0.00252911
0.00253214
0.00253518
0.00253822
0.00254126
0.00254431
0.00254735
0.0025504
0.00255345
0.00255649
0.00255955
0.0025626
0.00256566
0.00256872
0.00257178
0.00257484
0.0025779
0.00258097
0.00258404
0.00258711
0.00259018
0.00259325
0.00259632
0.0025994
0.00260248
0.00260556
0.00260864
0.00261172
0.00261481
0.0026179
0.00262098
0.00262408
0.00262717
0.00263027
0.00263336
0.00263646
0.00263956
0.00264266
0.00264577
0.00264887
0.00265197
0.00265509
0.00265819
0.00266131
0.00266442
0.00266754
0.00267066
0.00267378
0.0026769
0.00268002
0.00268314
0.00268627
0.0026894
0.00269253
0.00269567
0.0026988
0.00270193
0.00270507
0.00270821
0.00271136
0.0027145
0.00271764
0.00272079
0.00272394
0.0027271
0.00273025
0.0027334
0.00273656
0.00273972
0.00274288
0.00274604
0.0027492
0.00275237
0.00275554
0.00275871
0.00276188
0.00276505
0.00276822
0.0027714
0.00277458
0.00277776
0.00278094
0.00278413
0.00278731
0.0027905
0.00279369
0.00279688
0.00280007
0.00280326
0.00280646
0.00280966
0.00281286
0.00281606
0.00281926
0.00282247
0.00282568
0.00282889
0.0028321
0.00283531
0.00283853
0.00284174
0.00284496
0.00284818
0.0028514
0.00285463
0.00285785
0.00286108
0.0028643
0.00286753
0.00287077
0.00287401
0.00287724
0.00288048
0.00288372
0.00288696
0.00289021
0.00289345
0.0028967
0.00289995
0.0029032
0.00290646
0.00290971
0.00291296
0.00291622
0.00291948
0.00292275
0.00292601
0.00292928
0.00293254
0.00293581
0.00293909
0.00294236
0.00294563
0.00294891
0.00295219
0.00295547
0.00295875
0.00296203
0.00296532
0.00296861
0.0029719
0.00297519
0.00297848
0.00298177
0.00298507
0.00298837
0.00299167
0.00299497
0.00299827
0.00300158
0.00300489
0.0030082
0.00301151
0.00301482
0.00301813
0.00302145
0.00302477
0.00302809
0.00303141
0.00303474
0.00303806
0.00304139
0.00304472
0.00304805
0.00305139
0.00305472
0.00305806
0.0030614
0.00306474
0.00306808
0.00307142
0.00307477
0.00307812
0.00308147
0.00308482
0.00308817
0.00309153
0.00309489
0.00309824
0.0031016
0.00310496
0.00310833
0.0031117
0.00311506
0.00311843
0.0031218
0.00312518
0.00312855
0.00313193
0.00313531
0.00313869
0.00314207
0.00314545
0.00314884
0.00315223
0.00315561
0.00315901
0.0031624
0.00316579
0.00316919
0.00317259
0.00317599
0.00317939
0.00318279
0.0031862
0.00318961
0.00319302
0.00319643
0.00319984
0.00320326
0.00320668
0.00321009
0.00321352
0.00321694
0.00322036
0.00322379
0.00322721
0.00323065
0.00323408
0.00323751
0.00324095
0.00324438
0.00324782
0.00325126
0.0032547
0.00325815
0.00326159
0.00326504
0.00326849
0.00327194
0.0032754
0.00327885
0.00328231
0.00328577
0.00328923
0.00329269
0.00329615
0.00329962
0.00330309
0.00330656
0.00331003
0.0033135
0.00331698
0.00332046
0.00332393
0.00332741
0.00333089
0.00333438
0.00333787
0.00334135
0.00334484
0.00334833
0.00335183
0.00335532
0.00335882
0.00336232
0.00336582
0.00336932
0.00337283
0.00337633
0.00337984
0.00338335
0.00338686
0.00339038
0.00339389
0.00339741
0.00340093
0.00340445
0.00340797
0.0034115
0.00341502
0.00341855
0.00342208
0.00342561
0.00342915
0.00343268
0.00343622
0.00343976
0.0034433
0.00344684
0.00345038
0.00345393
0.00345748
0.00346103
0.00346458
0.00346813
0.00347169
0.00347524
0.00347881
0.00348237
0.00348593
0.00348949
0.00349306
0.00349663
0.0035002
0.00350376
0.00350734
0.00351091
0.00351449
0.00351807
0.00352165
0.00352523
0.00352881
0.0035324
0.00353599
0.00353958
0.00354317
0.00354677
0.00355036
0.00355396
0.00355756
0.00356116
0.00356476
0.00356837
0.00357198
0.00357558
0.00357919
0.0035828
0.00358642
0.00359004
0.00359365
0.00359727
0.00360089
0.00360451
0.00360814
0.00361177
0.00361539
0.00361902
0.00362265
0.00362629
0.00362993
0.00363356
0.0036372
0.00364084
0.00364448
0.00364813
0.00365177
0.00365542
0.00365907
0.00366272
0.00366638
0.00367003
0.00367369
0.00367735
0.00368101
0.00368467
0.00368833
0.003692
0.00369567
0.00369934
0.00370301
0.00370669
0.00371036
0.00371404
0.00371772
0.0037214
0.00372508
0.00372877
0.00373245
0.00373614
0.00373983
0.00374353
0.00374722
0.00375091
0.00375461
0.00375831
0.00376201
0.00376571
0.00376942
0.00377313
0.00377684
0.00378055
0.00378426
0.00378797
0.00379169
0.00379541
0.00379912
0.00380284
0.00380657
0.00381029
0.00381402
0.00381775
0.00382147
0.00382521
0.00382894
0.00383268
0.00383642
0.00384015
0.00384389
0.00384763
0.00385138
0.00385513
0.00385887
0.00386262
0.00386637
0.00387013
0.00387389
0.00387764
0.0038814
0.00388516
0.00388892
0.00389269
0.00389646
0.00390022
0.003904
0.00390777
0.00391154
0.00391532
0.0039191
0.00392288
0.00392666
0.00393044
0.00393423
0.00393801
0.0039418
0.00394559
0.00394938
0.00395318
0.00395697
0.00396077
0.00396457
0.00396837
0.00397218
0.00397598
0.00397979
0.00398359
0.00398741
0.00399122
0.00399503
0.00399885
0.00400266
0.00400648
0.0040103
0.00401412
0.00401795
0.00402178
0.00402561
0.00402944
0.00403327
0.0040371
0.00404093
0.00404478
0.00404861
0.00405245
0.0040563
0.00406014
0.00406399
0.00406784
0.00407169
0.00407554
0.00407939
0.00408325
0.00408711
0.00409097
0.00409483
0.00409869
0.00410256
0.00410643
0.0041103
0.00411416
0.00411804
0.00412191
0.00412579
0.00412967
0.00413354
0.00413743
0.00414131
0.0041452
0.00414908
0.00415297
0.00415686
0.00416075
0.00416465
0.00416854
0.00417244
0.00417634
0.00418024
0.00418415
0.00418805
0.00419195
0.00419586
0.00419977
0.00420369
0.0042076
0.00421151
0.00421543
0.00421935
0.00422328
0.0042272
0.00423112
0.00423505
0.00423897
0.00424291
0.00424684
0.00425077
0.00425471
0.00425864
0.00426258
0.00426653
0.00427047
0.00427441
0.00427836
0.00428231
0.00428626
0.00429022
0.00429417
0.00429813
0.00430208
0.00430605
0.00431001
0.00431397
0.00431793
0.0043219
0.00432587
0.00432984
0.00433381
0.00433779
0.00434176
0.00434574
0.00434972
0.0043537
0.00435769
0.00436167
0.00436566
0.00436965
0.00437364
0.00437763
0.00438162
0.00438562
0.00438962
0.00439361
0.00439762
0.00440162
0.00440563
0.00440963
0.00441364
0.00441765
0.00442166
0.00442568
0.00442969
0.00443371
0.00443773
0.00444175
0.00444577
0.0044498
0.00445383
0.00445786
0.00446189
0.00446592
0.00446996
0.00447399
0.00447803
0.00448207
0.00448611
0.00449016
0.0044942
0.00449825
0.0045023
0.00450635
0.0045104
0.00451446
0.00451851
0.00452257
0.00452663
0.00453069
0.00453476
0.00453882
0.00454289
0.00454696
0.00455103
0.0045551
0.00455917
0.00456325
0.00456733
0.00457141
0.00457549
0.00457957
0.00458366
0.00458774
0.00459184
0.00459593
0.00460002
0.00460411
0.00460821
0.00461231
0.00461641
0.0046205
0.00462461
0.00462871
0.00463282
0.00463693
0.00464104
0.00464515
0.00464926
0.00465338
0.0046575
0.00466162
0.00466574
0.00466987
0.00467399
0.00467812
0.00468225
0.00468638
0.00469051
0.00469465
0.00469879
0.00470292
0.00470706
0.0047112
0.00471535
0.0047195
0.00472364
0.00472779
0.00473194
0.00473609
0.00474025
0.00474441
0.00474856
0.00475272
0.00475688
0.00476105
0.00476522
0.00476938
0.00477355
0.00477772
0.00478189
0.00478607
0.00479024
0.00479442
0.0047986
0.00480278
0.00480697
0.00481115
0.00481534
0.00481953
0.00482372
0.00482791
0.0048321
0.0048363
0.0048405
0.0048447
0.0048489
0.00485311
0.00485731
0.00486152
0.00486573
0.00486994
0.00487415
0.00487837
0.00488258
0.0048868
0.00489103
0.00489525
0.00489947
0.0049037
0.00490792
0.00491215
0.00491639
0.00492062
0.00492485
0.00492909
0.00493333
0.00493757
0.00494181
0.00494605
0.0049503
0.00495455
0.0049588
0.00496304
0.0049673
0.00497155
0.00497581
0.00498007
0.00498433
0.00498859
0.00499285
0.00499712
0.00500139
0.00500565
0.00500992
0.0050142
0.00501847
0.00502275
0.00502702
0.00503131
0.00503559
0.00503987
0.00504416
0.00504844
0.00505273
0.00505702
0.00506132
0.00506561
0.00506991
0.00507421
0.00507851
0.00508281
0.00508712
0.00509142
0.00509573
0.00510004
0.00510435
0.00510866
0.00511298
0.00511729
0.00512161
0.00512593
0.00513026
0.00513458
0.0051389
0.00514323
0.00514756
0.00515189
0.00515623
0.00516056
0.0051649
0.00516923
0.00517358
0.00517792
0.00518226
0.00518661
0.00519095
0.00519531
0.00519966
0.00520401
0.00520836
0.00521272
0.00521708
0.00522144
0.0052258
0.00523016
0.00523453
0.0052389
0.00524327
0.00524764
0.00525201
0.00525638
0.00526076
0.00526514
0.00526952
0.0052739
0.00527829
0.00528267
0.00528706
0.00529145
0.00529584
0.00530024
0.00530463
0.00530903
0.00531343
0.00531783
0.00532223
0.00532663
0.00533104
0.00533545
0.00533986
0.00534427
0.00534868
0.0053531
0.00535752
0.00536193
0.00536635
0.00537077
0.0053752
0.00537963
0.00538405
0.00538848
0.00539291
0.00539735
0.00540178
0.00540622
0.00541066
0.0054151
0.00541954
0.00542399
0.00542843
0.00543288
0.00543732
0.00544178
0.00544623
0.00545068
0.00545514
0.0054596
0.00546406
0.00546852
0.00547298
0.00547745
0.00548192
0.00548639
0.00549086
0.00549534
0.00549981
0.00550429
0.00550876
0.00551325
0.00551773
0.00552221
0.0055267
0.00553119
0.00553568
0.00554017
0.00554466
0.00554916
0.00555365
0.00555816
0.00556266
0.00556716
0.00557166
0.00557617
0.00558068
0.00558519
0.0055897
0.00559421
0.00559872
0.00560324
0.00560776
0.00561228
0.0056168
0.00562133
0.00562585
0.00563038
0.00563491
0.00563944
0.00564397
0.00564851
0.00565305
0.00565758
0.00566213
0.00566667
0.00567121
0.00567576
0.0056803
0.00568485
0.0056894
0.00569396
0.00569852
0.00570307
0.00570763
0.00571219
0.00571675
0.00572132
0.00572589
0.00573045
0.00573502
0.0057396
0.00574417
0.00574875
0.00575332
0.0057579
0.00576248
0.00576707
0.00577165
0.00577624
0.00578082
0.00578541
0.00579001
0.0057946
0.00579919
0.00580379
0.00580839
0.00581299
0.0058176
0.0058222
0.00582681
0.00583141
0.00583602
0.00584064
0.00584525
0.00584986
0.00585448
0.0058591
0.00586372
0.00586834
0.00587297
0.00587759
0.00588222
0.00588685
0.00589148
0.00589611
0.00590075
0.00590539
0.00591003
0.00591467
0.00591931
0.00592396
0.0059286
0.00593325
0.0059379
0.00594255
0.00594721
0.00595186
0.00595652
0.00596118
0.00596584
0.0059705
0.00597517
0.00597984
0.0059845
0.00598917
0.00599384
0.00599852
0.0060032
0.00600787
0.00601255
0.00601723
0.00602191
0.0060266
0.00603129
0.00603597
0.00604066