/*--------------------------------*- C++ -*----------------------------------*\
| =========                 |                                                 |
| \\      /  F ield         | OpenFOAM: The Open Source CFD Toolbox           |
|  \\    /   O peration     | Version:  2206                                  |
|   \\  /    A nd           | Website:  www.openfoam.com                      |
|    \\/     M anipulation  |                                                 |
\*---------------------------------------------------------------------------*/
FoamFile
{
    version     2.0;
    format      ascii;
    arch        "LSB;label=32;scalar=64";
    class       volVectorField;
    location    "220";
    object      U;
}
// * * * * * * * * * * * * * * * * * * * * * * * * * * * * * * * * * * * * * //

dimensions      [0 1 -1 0 0 0 0];

internalField   nonuniform List<vector> 
100000
(
(-6.99492e-12 6.26804e-06 4.76118e-14)
(-6.70101e-12 1.15112e-05 1.30977e-13)
(-9.72508e-12 2.10392e-05 1.3308e-13)
(-1.42018e-11 3.12771e-05 1.48785e-13)
(-1.81643e-11 4.0583e-05 7.04942e-14)
(-1.76156e-11 4.28313e-05 7.36774e-14)
(-2.05976e-11 5.23397e-05 1.38404e-13)
(-2.61635e-11 6.26987e-05 1.45296e-13)
(-3.08112e-11 7.30429e-05 1.44481e-13)
(-3.52542e-11 8.24278e-05 8.2642e-14)
(-3.31475e-11 8.46149e-05 7.54079e-14)
(-3.75259e-11 9.40997e-05 1.39102e-13)
(-4.2389e-11 0.000104462 1.44015e-13)
(-4.75163e-11 0.000114815 1.43497e-13)
(-5.17498e-11 0.000124222 8.05185e-14)
(-4.98359e-11 0.000126397 7.60884e-14)
(-5.4267e-11 0.000135871 1.39707e-13)
(-5.89809e-11 0.000146234 1.43417e-13)
(-6.45248e-11 0.000156589 1.4301e-13)
(-6.81659e-11 0.000166006 7.94631e-14)
(-6.70983e-11 0.000168178 7.69683e-14)
(-7.04639e-11 0.000177645 1.395e-13)
(-7.65463e-11 0.000188013 1.44691e-13)
(-8.05111e-11 0.000198446 1.46393e-13)
(-8.66167e-11 0.000208808 1.43206e-13)
(-9.00223e-11 0.000218232 8.06263e-14)
(-8.88868e-11 0.000220402 7.72063e-14)
(-9.25554e-11 0.000229864 1.41795e-13)
(-9.80999e-11 0.000240226 1.44455e-13)
(-1.02843e-10 0.000250584 1.43606e-13)
(-1.07368e-10 0.000260011 7.95329e-14)
(-1.05322e-10 0.00026218 7.78832e-14)
(-1.09748e-10 0.00027164 1.41228e-13)
(-1.14672e-10 0.000282002 1.44692e-13)
(-1.19923e-10 0.00029236 1.42919e-13)
(-1.2403e-10 0.00030179 7.95926e-14)
(-1.22334e-10 0.000303959 7.76669e-14)
(-1.26479e-10 0.000313416 1.41414e-13)
(-1.31633e-10 0.000323778 1.4436e-13)
(-1.36695e-10 0.000334137 1.42838e-13)
(-1.40955e-10 0.000343569 7.92717e-14)
(-1.3914e-10 0.000345737 7.78178e-14)
(-1.43385e-10 0.000355192 1.41287e-13)
(-1.4846e-10 0.000365555 1.44339e-13)
(-1.53583e-10 0.000375913 1.42574e-13)
(-1.57793e-10 0.000385347 7.91988e-14)
(-1.5602e-10 0.000387514 7.77817e-14)
(-1.60237e-10 0.000396969 1.41325e-13)
(-1.65331e-10 0.000407331 1.44198e-13)
(-1.70442e-10 0.00041769 1.42476e-13)
(-1.74656e-10 0.000427124 7.90372e-14)
(-1.72889e-10 0.000429292 7.78503e-14)
(-1.77095e-10 0.000438746 1.41263e-13)
(-1.82208e-10 0.000449108 1.44175e-13)
(-1.8729e-10 0.000459467 1.42307e-13)
(-1.91541e-10 0.000468902 7.89972e-14)
(-1.89728e-10 0.00047107 7.78112e-14)
(-1.93995e-10 0.000480522 1.41314e-13)
(-1.99032e-10 0.000490884 1.44045e-13)
(-2.04207e-10 0.000501244 1.42288e-13)
(-2.08342e-10 0.00051068 7.88272e-14)
(-2.06673e-10 0.000512847 7.79342e-14)
(-2.10768e-10 0.000522299 1.41179e-13)
(-2.16014e-10 0.000532661 1.44144e-13)
(-2.20934e-10 0.000543021 1.42029e-13)
(-2.25377e-10 0.000552457 7.89682e-14)
(-2.23337e-10 0.000554624 7.77025e-14)
(-2.27881e-10 0.000564076 1.41462e-13)
(-2.32584e-10 0.000574438 1.43754e-13)
(-2.38159e-10 0.000584797 1.42374e-13)
(-2.41812e-10 0.000594235 7.84149e-14)
(-2.40725e-10 0.000596402 7.83132e-14)
(-2.44123e-10 0.000605853 1.40769e-13)
(-2.50209e-10 0.00061622 1.45214e-13)
(-2.54195e-10 0.000626654 1.457e-13)
(-2.60287e-10 0.000637018 1.41969e-13)
(-2.63698e-10 0.000646456 7.94093e-14)
(-2.62585e-10 0.000648623 7.77859e-14)
(-2.66252e-10 0.000658074 1.41991e-13)
(-2.7181e-10 0.000668436 1.4413e-13)
(-2.76538e-10 0.000678795 1.42595e-13)
(-2.81074e-10 0.000688234 7.87418e-14)
(-2.79032e-10 0.000690401 7.82809e-14)
(-2.83468e-10 0.000699851 1.41545e-13)
(-2.88391e-10 0.000710212 1.44418e-13)
(-2.93643e-10 0.000720572 1.42242e-13)
(-2.97745e-10 0.000730011 7.89224e-14)
(-2.96063e-10 0.000732178 7.80859e-14)
(-3.00202e-10 0.000741628 1.41671e-13)
(-3.0537e-10 0.000751989 1.44244e-13)
(-3.10418e-10 0.000762349 1.4228e-13)
(-3.14688e-10 0.000771788 7.87955e-14)
(-3.12867e-10 0.000773955 7.81462e-14)
(-3.17125e-10 0.000783405 1.41595e-13)
(-3.22191e-10 0.000793766 1.44241e-13)
(-3.27326e-10 0.000804126 1.42194e-13)
(-3.3152e-10 0.000813565 7.87742e-14)
(-3.29769e-10 0.000815732 7.81314e-14)
(-3.33962e-10 0.000825182 1.41575e-13)
(-3.39091e-10 0.000835543 1.44207e-13)
(-3.44162e-10 0.000845903 1.42129e-13)
(-3.48421e-10 0.000855343 7.87587e-14)
(-3.46601e-10 0.00085751 7.80984e-14)
(-3.50873e-10 0.000866959 1.41592e-13)
(-3.5591e-10 0.00087732 1.44124e-13)
(-3.61087e-10 0.00088768 1.42143e-13)
(-3.65221e-10 0.00089712 7.86509e-14)
(-3.6355e-10 0.000899287 7.81863e-14)
(-3.67645e-10 0.000908736 1.41462e-13)
(-3.72895e-10 0.000919097 1.44227e-13)
(-3.77815e-10 0.000929457 1.41938e-13)
(-3.82257e-10 0.000938897 7.88172e-14)
(-3.80216e-10 0.000941064 7.79469e-14)
(-3.84759e-10 0.000950513 1.41729e-13)
(-3.89468e-10 0.000960874 1.43857e-13)
(-3.9504e-10 0.000971234 1.4231e-13)
(-3.98696e-10 0.000980674 7.82958e-14)
(-3.97603e-10 0.000982841 7.85415e-14)
(-4.01004e-10 0.00099229 1.41027e-13)
(-4.07092e-10 0.00100266 1.45326e-13)
(-4.11078e-10 0.00101309 1.45628e-13)
(-4.17169e-10 0.00102346 1.41764e-13)
(-4.20579e-10 0.0010329 7.92199e-14)
(-4.19469e-10 0.00103506 7.79051e-14)
(-4.23134e-10 0.00104451 1.42077e-13)
(-4.28695e-10 0.00105487 1.44084e-13)
(-4.3342e-10 0.00106523 1.42426e-13)
(-4.37957e-10 0.00107467 7.85802e-14)
(-4.35915e-10 0.00107684 7.83996e-14)
(-4.40352e-10 0.00108629 1.41636e-13)
(-4.45275e-10 0.00109665 1.44396e-13)
(-4.50526e-10 0.00110701 1.421e-13)
(-4.54628e-10 0.00111645 7.87896e-14)
(-4.52946e-10 0.00111862 7.81965e-14)
(-4.57087e-10 0.00112806 1.41775e-13)
(-4.62253e-10 0.00113843 1.44232e-13)
(-4.67304e-10 0.00114879 1.42173e-13)
(-4.7157e-10 0.00115823 7.86738e-14)
(-4.69755e-10 0.00116039 7.82645e-14)
(-4.74005e-10 0.00116984 1.41692e-13)
(-4.79082e-10 0.0011802 1.44256e-13)
(-4.84203e-10 0.00119056 1.42095e-13)
(-4.88413e-10 0.0012 7.86877e-14)
(-4.86643e-10 0.00120217 7.8226e-14)
(-4.9086e-10 0.00121162 1.41701e-13)
(-4.9596e-10 0.00122198 1.44205e-13)
(-5.01066e-10 0.00123234 1.42085e-13)
(-5.05282e-10 0.00124178 7.86441e-14)
(-5.03514e-10 0.00124395 7.82417e-14)
(-5.07722e-10 0.0012534 1.4166e-13)
(-5.12839e-10 0.00126376 1.44205e-13)
(-5.17919e-10 0.00127412 1.42027e-13)
(-5.22171e-10 0.00128356 7.86562e-14)
(-5.20357e-10 0.00128573 7.81982e-14)
(-5.24624e-10 0.00129517 1.41687e-13)
(-5.29667e-10 0.00130553 1.44129e-13)
(-5.34838e-10 0.00131589 1.42062e-13)
(-5.38976e-10 0.00132534 7.85615e-14)
(-5.37302e-10 0.0013275 7.82841e-14)
(-5.414e-10 0.00133695 1.41561e-13)
(-5.46648e-10 0.00134731 1.44241e-13)
(-5.5157e-10 0.00135767 1.41874e-13)
(-5.5601e-10 0.00136711 7.87378e-14)
(-5.5397e-10 0.00136928 7.80451e-14)
(-5.58511e-10 0.00137873 1.41828e-13)
(-5.63223e-10 0.00138909 1.43881e-13)
(-5.68793e-10 0.00139945 1.42259e-13)
(-5.72451e-10 0.00140889 7.82285e-14)
(-5.71355e-10 0.00141106 7.86369e-14)
(-5.74758e-10 0.0014205 1.41128e-13)
(-5.80846e-10 0.00143087 1.45357e-13)
(-5.84832e-10 0.0014413 1.45571e-13)
(-5.90922e-10 0.00145167 1.41642e-13)
(-5.94331e-10 0.00146111 7.9116e-14)
(-5.93224e-10 0.00146328 7.79519e-14)
(-5.96888e-10 0.00147273 1.42098e-13)
(-6.0245e-10 0.00148309 1.44038e-13)
(-6.07173e-10 0.00149345 1.4232e-13)
(-6.11711e-10 0.00150289 7.84872e-14)
(-6.09669e-10 0.00150506 7.84483e-14)
(-6.14107e-10 0.0015145 1.41662e-13)
(-6.19029e-10 0.00152486 1.44362e-13)
(-6.2428e-10 0.00153522 1.42007e-13)
(-6.28381e-10 0.00154467 7.87074e-14)
(-6.26702e-10 0.00154683 7.82455e-14)
(-6.3084e-10 0.00155628 1.41807e-13)
(-6.3601e-10 0.00156664 1.44208e-13)
(-6.41055e-10 0.001577 1.42091e-13)
(-6.45326e-10 0.00158644 7.86028e-14)
(-6.43505e-10 0.00158861 7.83106e-14)
(-6.47764e-10 0.00159806 1.41734e-13)
(-6.52831e-10 0.00160842 1.44233e-13)
(-6.57964e-10 0.00161878 1.42034e-13)
(-6.62158e-10 0.00162822 7.86127e-14)
(-6.60408e-10 0.00163039 7.8288e-14)
(-6.64601e-10 0.00163983 1.41727e-13)
(-6.69731e-10 0.00165019 1.44214e-13)
(-6.74801e-10 0.00166055 1.42004e-13)
(-6.7906e-10 0.00167 7.86137e-14)
(-6.77239e-10 0.00167216 7.82582e-14)
(-6.81512e-10 0.00168161 1.41746e-13)
(-6.86551e-10 0.00169197 1.44152e-13)
(-6.91726e-10 0.00170233 1.42039e-13)
(-6.95862e-10 0.00171177 7.85297e-14)
(-6.94188e-10 0.00171394 7.83396e-14)
(-6.98285e-10 0.00172339 1.41625e-13)
(-7.03535e-10 0.00173375 1.44265e-13)
(-7.08456e-10 0.00174411 1.4186e-13)
(-7.12897e-10 0.00175355 7.87094e-14)
(-7.10855e-10 0.00175572 7.81011e-14)
(-7.15397e-10 0.00176516 1.41894e-13)
(-7.2011e-10 0.00177553 1.43909e-13)
(-7.25679e-10 0.00178589 1.4225e-13)
(-7.29337e-10 0.00179533 7.82034e-14)
(-7.2824e-10 0.00179749 7.86941e-14)
(-7.31644e-10 0.00180694 1.41192e-13)
(-7.37732e-10 0.00181731 1.45389e-13)
(-7.41718e-10 0.00182774 1.45559e-13)
(-7.47808e-10 0.00183811 1.41598e-13)
(-7.51216e-10 0.00184755 7.90716e-14)
(-7.5011e-10 0.00184972 7.79851e-14)
(-7.53774e-10 0.00185916 1.42123e-13)
(-7.59337e-10 0.00186952 1.44032e-13)
(-7.64059e-10 0.00187988 1.42281e-13)
(-7.68597e-10 0.00188933 7.84485e-14)
(-7.66555e-10 0.00189149 7.84817e-14)
(-7.70993e-10 0.00190094 1.41691e-13)
(-7.75916e-10 0.0019113 1.44361e-13)
(-7.81166e-10 0.00192166 1.41974e-13)
(-7.85268e-10 0.0019311 7.86741e-14)
(-7.83587e-10 0.00193327 7.82779e-14)
(-7.87728e-10 0.00194272 1.41841e-13)
(-7.92895e-10 0.00195308 1.44208e-13)
(-7.97944e-10 0.00196344 1.42067e-13)
(-8.0221e-10 0.00197288 7.85685e-14)
(-8.00395e-10 0.00197505 7.83497e-14)
(-8.04645e-10 0.00198449 1.41762e-13)
(-8.09723e-10 0.00199485 1.44246e-13)
(-8.14844e-10 0.00200522 1.42003e-13)
(-8.19053e-10 0.00201466 7.85963e-14)
(-8.17283e-10 0.00201682 7.83099e-14)
(-8.215e-10 0.00202627 1.41779e-13)
(-8.26602e-10 0.00203663 1.44204e-13)
(-8.31707e-10 0.00204699 1.4201e-13)
(-8.35923e-10 0.00205643 7.8561e-14)
(-8.34154e-10 0.0020586 7.83286e-14)
(-8.38363e-10 0.00206805 1.41742e-13)
(-8.43481e-10 0.00207841 1.44216e-13)
(-8.4856e-10 0.00208877 1.41963e-13)
(-8.52811e-10 0.00209821 7.85845e-14)
(-8.50997e-10 0.00210038 7.82838e-14)
(-8.55264e-10 0.00210983 1.41776e-13)
(-8.60308e-10 0.00212019 1.44147e-13)
(-8.65479e-10 0.00213055 1.42012e-13)
(-8.69618e-10 0.00213999 7.84965e-14)
(-8.67942e-10 0.00214216 7.8372e-14)
(-8.7204e-10 0.0021516 1.41652e-13)
(-8.77289e-10 0.00216196 1.44268e-13)
(-8.82211e-10 0.00217232 1.41834e-13)
(-8.86651e-10 0.00218177 7.86827e-14)
(-8.8461e-10 0.00218393 7.8131e-14)
(-8.89151e-10 0.00219338 1.41925e-13)
(-8.93865e-10 0.00220374 1.43912e-13)
(-8.99433e-10 0.0022141 1.42231e-13)
(-9.03092e-10 0.00222354 7.81771e-14)
(-9.01995e-10 0.00222571 7.87269e-14)
(-9.05399e-10 0.00223516 1.41223e-13)
(-9.11487e-10 0.00224552 1.45398e-13)
(-9.15473e-10 0.00225596 1.45534e-13)
(-9.21563e-10 0.00226632 1.41553e-13)
(-9.24971e-10 0.00227576 7.90316e-14)
(-9.23866e-10 0.00227793 7.80016e-14)
(-9.27528e-10 0.00228738 1.42127e-13)
(-9.33092e-10 0.00229774 1.44014e-13)
(-9.37813e-10 0.0023081 1.42238e-13)
(-9.42351e-10 0.00231754 7.84141e-14)
(-9.4031e-10 0.00231971 7.84968e-14)
(-9.44748e-10 0.00232915 1.417e-13)
(-9.4967e-10 0.00233952 1.44344e-13)
(-9.54921e-10 0.00234988 1.41938e-13)
(-9.59021e-10 0.00235932 7.86398e-14)
(-9.57343e-10 0.00236149 7.82971e-14)
(-9.61481e-10 0.00237093 1.41848e-13)
(-9.66652e-10 0.00238129 1.44199e-13)
(-9.71696e-10 0.00239165 1.4203e-13)
(-9.75967e-10 0.0024011 7.85429e-14)
(-9.74146e-10 0.00240326 7.83625e-14)
(-9.78405e-10 0.00241271 1.4178e-13)
(-9.83473e-10 0.00242307 1.44229e-13)
(-9.88605e-10 0.00243343 1.41982e-13)
(-9.92799e-10 0.00244287 7.85579e-14)
(-9.91048e-10 0.00244504 7.8342e-14)
(-9.95242e-10 0.00245449 1.41777e-13)
(-1.00037e-09 0.00246485 1.44217e-13)
(-1.00544e-09 0.00247521 1.4196e-13)
(-1.0097e-09 0.00248465 7.85653e-14)
(-1.00788e-09 0.00248682 7.83123e-14)
(-1.01215e-09 0.00249626 1.418e-13)
(-1.01719e-09 0.00250662 1.4416e-13)
(-1.02237e-09 0.00251698 1.42003e-13)
(-1.0265e-09 0.00252643 7.84857e-14)
(-1.02483e-09 0.00252859 7.83956e-14)
(-1.02893e-09 0.00253804 1.41682e-13)
(-1.03418e-09 0.0025484 1.4428e-13)
(-1.0391e-09 0.00255876 1.4183e-13)
(-1.04354e-09 0.0025682 7.86713e-14)
(-1.0415e-09 0.00257037 7.81567e-14)
(-1.04604e-09 0.00257982 1.41955e-13)
(-1.05075e-09 0.00259018 1.43927e-13)
(-1.05632e-09 0.00260054 1.42229e-13)
(-1.05998e-09 0.00260998 7.81677e-14)
(-1.05888e-09 0.00261215 7.87528e-14)
(-1.06228e-09 0.00262159 1.41254e-13)
(-1.06837e-09 0.00263196 1.45414e-13)
(-1.07236e-09 0.00264239 1.45531e-13)
(-1.07845e-09 0.00265276 1.41535e-13)
(-1.08186e-09 0.0026622 7.90133e-14)
(-1.08075e-09 0.00266437 7.80173e-14)
(-1.08441e-09 0.00267382 1.42141e-13)
(-1.08998e-09 0.00268418 1.44013e-13)
(-1.0947e-09 0.00269454 1.42223e-13)
(-1.09924e-09 0.00270398 7.83973e-14)
(-1.0972e-09 0.00270615 7.85136e-14)
(-1.10163e-09 0.00271559 1.41714e-13)
(-1.10656e-09 0.00272595 1.44346e-13)
(-1.11181e-09 0.00273631 1.41923e-13)
(-1.11591e-09 0.00274576 7.86264e-14)
(-1.11423e-09 0.00274792 7.8312e-14)
(-1.11837e-09 0.00275737 1.41867e-13)
(-1.12354e-09 0.00276773 1.44199e-13)
(-1.12858e-09 0.00277809 1.42023e-13)
(-1.13285e-09 0.00278753 7.85257e-14)
(-1.13104e-09 0.0027897 7.83845e-14)
(-1.13529e-09 0.00279915 1.41792e-13)
(-1.14036e-09 0.00280951 1.44241e-13)
(-1.14548e-09 0.00281987 1.41965e-13)
(-1.14969e-09 0.00282931 7.85569e-14)
(-1.14792e-09 0.00283148 7.83464e-14)
(-1.15214e-09 0.00284092 1.41812e-13)
(-1.15724e-09 0.00285128 1.44204e-13)
(-1.16235e-09 0.00286164 1.41977e-13)
(-1.16656e-09 0.00287109 7.85258e-14)
(-1.1648e-09 0.00287325 7.83656e-14)
(-1.169e-09 0.0028827 1.41778e-13)
(-1.17412e-09 0.00289306 1.4422e-13)
(-1.1792e-09 0.00290342 1.41936e-13)
(-1.18345e-09 0.00291286 7.85524e-14)
(-1.18164e-09 0.00291503 7.83222e-14)
(-1.1859e-09 0.00292448 1.41815e-13)
(-1.19095e-09 0.00293484 1.44155e-13)
(-1.19612e-09 0.0029452 1.41989e-13)
(-1.20026e-09 0.00295464 7.84681e-14)
(-1.19858e-09 0.00295681 7.84109e-14)
(-1.20268e-09 0.00296625 1.41694e-13)
(-1.20793e-09 0.00297662 1.4428e-13)
(-1.21285e-09 0.00298698 1.41816e-13)
(-1.21729e-09 0.00299642 7.8657e-14)
(-1.21525e-09 0.00299859 7.81709e-14)
(-1.21979e-09 0.00300803 1.41969e-13)
(-1.22451e-09 0.00301839 1.43927e-13)
(-1.23007e-09 0.00302875 1.42217e-13)
(-1.23373e-09 0.0030382 7.81539e-14)
(-1.23264e-09 0.00304036 7.87683e-14)
(-1.23604e-09 0.00304981 1.41268e-13)
(-1.24213e-09 0.00306017 1.45417e-13)
(-1.24611e-09 0.00307061 1.45517e-13)
(-1.2522e-09 0.00308097 1.4151e-13)
(-1.25561e-09 0.00309042 7.89923e-14)
(-1.25451e-09 0.00309258 7.80247e-14)
(-1.25817e-09 0.00310203 1.42141e-13)
(-1.26373e-09 0.00311239 1.44002e-13)
(-1.26845e-09 0.00312275 1.42199e-13)
(-1.27299e-09 0.00313219 7.83787e-14)
(-1.27095e-09 0.00313436 7.85206e-14)
(-1.27539e-09 0.00314381 1.41717e-13)
(-1.28031e-09 0.00315417 1.44335e-13)
(-1.28556e-09 0.00316453 1.41903e-13)
(-1.28966e-09 0.00317397 7.86074e-14)
(-1.28798e-09 0.00317614 7.83218e-14)
(-1.29212e-09 0.00318558 1.41868e-13)
(-1.29729e-09 0.00319594 1.44193e-13)
(-1.30234e-09 0.00320631 1.42e-13)
(-1.30661e-09 0.00321575 7.8513e-14)
(-1.30479e-09 0.00321792 7.83885e-14)
(-1.30905e-09 0.00322736 1.41803e-13)
(-1.31411e-09 0.00323772 1.44228e-13)
(-1.31925e-09 0.00324808 1.41956e-13)
(-1.32344e-09 0.00325753 7.85309e-14)
(-1.32169e-09 0.00325969 7.83687e-14)
(-1.32588e-09 0.00326914 1.41802e-13)
(-1.33101e-09 0.0032795 1.44219e-13)
(-1.33608e-09 0.00328986 1.41938e-13)
(-1.34034e-09 0.0032993 7.85406e-14)
(-1.33852e-09 0.00330147 7.83402e-14)
(-1.34279e-09 0.00331092 1.41828e-13)
(-1.34783e-09 0.00332128 1.44165e-13)
(-1.35301e-09 0.00333164 1.41985e-13)
(-1.35714e-09 0.00334108 7.84635e-14)
(-1.35547e-09 0.00334325 7.8424e-14)
(-1.35957e-09 0.00335269 1.41712e-13)
(-1.36482e-09 0.00336305 1.44287e-13)
(-1.36974e-09 0.00337341 1.41815e-13)
(-1.37418e-09 0.00338286 7.86512e-14)
(-1.37214e-09 0.00338502 7.8186e-14)
(-1.37668e-09 0.00339447 1.41987e-13)
(-1.38139e-09 0.00340483 1.43937e-13)
(-1.38696e-09 0.00341519 1.42218e-13)
(-1.39062e-09 0.00342463 7.81494e-14)
(-1.38952e-09 0.0034268 7.87834e-14)
(-1.39293e-09 0.00343625 1.41287e-13)
(-1.39901e-09 0.00344661 1.45427e-13)
(-1.403e-09 0.00345705 1.45517e-13)
(-1.40909e-09 0.00346741 1.41501e-13)
(-1.4125e-09 0.00347686 7.89827e-14)
(-1.41139e-09 0.00347902 7.80342e-14)
(-1.41506e-09 0.00348847 1.4215e-13)
(-1.42062e-09 0.00349883 1.44002e-13)
(-1.42534e-09 0.00350919 1.42192e-13)
(-1.42988e-09 0.00351863 7.83696e-14)
(-1.42784e-09 0.0035208 7.8531e-14)
(-1.43228e-09 0.00353024 1.41726e-13)
(-1.4372e-09 0.00354061 1.44338e-13)
(-1.44245e-09 0.00355097 1.41896e-13)
(-1.44655e-09 0.00356041 7.86009e-14)
(-1.44487e-09 0.00356258 7.83303e-14)
(-1.44901e-09 0.00357202 1.41881e-13)
(-1.45418e-09 0.00358238 1.44194e-13)
(-1.45923e-09 0.00359274 1.41998e-13)
(-1.46349e-09 0.00360219 7.8502e-14)
(-1.46168e-09 0.00360435 7.84038e-14)
(-1.46593e-09 0.0036138 1.41809e-13)
(-1.47101e-09 0.00362416 1.44239e-13)
(-1.47613e-09 0.00363452 1.41943e-13)
(-1.48034e-09 0.00364396 7.85354e-14)
(-1.47857e-09 0.00364613 7.83664e-14)
(-1.48278e-09 0.00365558 1.41831e-13)
(-1.48788e-09 0.00366594 1.44204e-13)
(-1.49299e-09 0.0036763 1.41959e-13)
(-1.49721e-09 0.00368574 7.85061e-14)
(-1.49544e-09 0.00368791 7.83865e-14)
(-1.49965e-09 0.00369735 1.41798e-13)
(-1.50476e-09 0.00370771 1.44222e-13)
(-1.50984e-09 0.00371807 1.41921e-13)
(-1.51409e-09 0.00372752 7.85344e-14)
(-1.51228e-09 0.00372968 7.83438e-14)
(-1.51655e-09 0.00373913 1.41837e-13)
(-1.52159e-09 0.00374949 1.4416e-13)
(-1.52676e-09 0.00375985 1.41976e-13)
(-1.5309e-09 0.00376929 7.84518e-14)
(-1.52922e-09 0.00377146 7.84332e-14)
(-1.53332e-09 0.00378091 1.41717e-13)
(-1.53857e-09 0.00379127 1.44287e-13)
(-1.54349e-09 0.00380163 1.41805e-13)
(-1.54793e-09 0.00381107 7.86425e-14)
(-1.54589e-09 0.00381324 7.81936e-14)
(-1.55043e-09 0.00382268 1.41995e-13)
(-1.55515e-09 0.00383304 1.43936e-13)
(-1.56072e-09 0.00384341 1.4221e-13)
(-1.56438e-09 0.00385285 7.81404e-14)
(-1.56328e-09 0.00385502 7.87923e-14)
(-1.56668e-09 0.00386446 1.41294e-13)
(-1.57277e-09 0.00387483 1.45428e-13)
(-1.57676e-09 0.00388526 1.45507e-13)
(-1.58285e-09 0.00389563 1.41486e-13)
(-1.58625e-09 0.00390507 7.89694e-14)
(-1.58515e-09 0.00390724 7.80383e-14)
(-1.58881e-09 0.00391668 1.42149e-13)
(-1.59438e-09 0.00392704 1.43995e-13)
(-1.59909e-09 0.0039374 1.42176e-13)
(-1.60363e-09 0.00394685 7.8358e-14)
(-1.60159e-09 0.00394901 7.85345e-14)
(-1.60603e-09 0.00395846 1.41728e-13)
(-1.61095e-09 0.00396882 1.4433e-13)
(-1.6162e-09 0.00397918 1.41883e-13)
(-1.6203e-09 0.00398862 7.85881e-14)
(-1.61863e-09 0.00399079 7.83365e-14)
(-1.62276e-09 0.00400024 1.4188e-13)
(-1.62793e-09 0.0040106 1.4419e-13)
(-1.63298e-09 0.00402096 1.41983e-13)
(-1.63725e-09 0.0040304 7.84953e-14)
(-1.63543e-09 0.00403257 7.8404e-14)
(-1.63969e-09 0.00404201 1.41817e-13)
(-1.64476e-09 0.00405237 1.44227e-13)
(-1.64989e-09 0.00406273 1.41941e-13)
(-1.65408e-09 0.00407218 7.85147e-14)
(-1.65233e-09 0.00407435 7.83848e-14)
(-1.65652e-09 0.00408379 1.41817e-13)
(-1.66166e-09 0.00409415 1.44219e-13)
(-1.66672e-09 0.00410451 1.41925e-13)
(-1.67098e-09 0.00411396 7.85257e-14)
(-1.66916e-09 0.00411612 7.8357e-14)
(-1.67343e-09 0.00412557 1.41845e-13)
(-1.67848e-09 0.00413593 1.44168e-13)
(-1.68365e-09 0.00414629 1.41974e-13)
(-1.68779e-09 0.00415573 7.845e-14)
(-1.68611e-09 0.0041579 7.84414e-14)
(-1.69021e-09 0.00416734 1.4173e-13)
(-1.69546e-09 0.00417771 1.44292e-13)
(-1.70038e-09 0.00418807 1.41806e-13)
(-1.70482e-09 0.00419751 7.8639e-14)
(-1.70278e-09 0.00419968 7.82038e-14)
(-1.70732e-09 0.00420912 1.42007e-13)
(-1.71203e-09 0.00421948 1.43943e-13)
(-1.7176e-09 0.00422984 1.42211e-13)
(-1.72126e-09 0.00423929 7.8138e-14)
(-1.72016e-09 0.00424145 7.88023e-14)
(-1.72357e-09 0.0042509 1.41307e-13)
(-1.72966e-09 0.00426126 1.45435e-13)
(-1.73364e-09 0.0042717 1.45508e-13)
(-1.73973e-09 0.00428206 1.41481e-13)
(-1.74314e-09 0.00429151 7.89637e-14)
(-1.74204e-09 0.00429367 7.80447e-14)
(-1.7457e-09 0.00430312 1.42156e-13)
(-1.75126e-09 0.00431348 1.43996e-13)
(-1.75598e-09 0.00432384 1.42172e-13)
(-1.76052e-09 0.00433329 7.83523e-14)
(-1.75848e-09 0.00433545 7.85418e-14)
(-1.76292e-09 0.0043449 1.41734e-13)
(-1.76784e-09 0.00435526 1.44333e-13)
(-1.77309e-09 0.00436562 1.41879e-13)
(-1.77719e-09 0.00437506 7.85848e-14)
(-1.77551e-09 0.00437723 7.83418e-14)
(-1.77965e-09 0.00438667 1.4189e-13)
(-1.78482e-09 0.00439704 1.4419e-13)
(-1.78987e-09 0.0044074 1.41983e-13)
(-1.79413e-09 0.00441684 7.84872e-14)
(-1.79232e-09 0.00441901 7.8416e-14)
(-1.79657e-09 0.00442845 1.41819e-13)
(-1.80165e-09 0.00443881 1.44237e-13)
(-1.80677e-09 0.00444917 1.4193e-13)
(-1.81098e-09 0.00445862 7.85217e-14)
(-1.80921e-09 0.00446078 7.83791e-14)
(-1.81342e-09 0.00447023 1.41842e-13)
(-1.81853e-09 0.00448059 1.44204e-13)
(-1.82363e-09 0.00449095 1.41948e-13)
(-1.82785e-09 0.00450039 7.84935e-14)
(-1.82608e-09 0.00450256 7.83998e-14)
(-1.83029e-09 0.00451201 1.41811e-13)
(-1.83541e-09 0.00452237 1.44224e-13)
(-1.84048e-09 0.00453273 1.41911e-13)
(-1.84474e-09 0.00454217 7.8523e-14)
(-1.84292e-09 0.00454434 7.83576e-14)
(-1.84719e-09 0.00455378 1.41851e-13)
(-1.85223e-09 0.00456414 1.44163e-13)
(-1.8574e-09 0.0045745 1.41968e-13)
(-1.86154e-09 0.00458395 7.84412e-14)
(-1.85986e-09 0.00458611 7.84476e-14)
(-1.86396e-09 0.00459556 1.41733e-13)
(-1.86921e-09 0.00460592 1.44291e-13)
(-1.87414e-09 0.00461628 1.41799e-13)
(-1.87858e-09 0.00462572 7.86331e-14)
(-1.87653e-09 0.00462789 7.82084e-14)
(-1.88107e-09 0.00463734 1.42011e-13)
(-1.88579e-09 0.0046477 1.43941e-13)
(-1.89136e-09 0.00465806 1.42205e-13)
(-1.89502e-09 0.0046675 7.81316e-14)
(-1.89392e-09 0.00466967 7.8808e-14)
(-1.89732e-09 0.00467911 1.41311e-13)
(-1.90341e-09 0.00468948 1.45435e-13)
(-1.9074e-09 0.00469991 1.45501e-13)
(-1.91349e-09 0.00471028 1.4147e-13)
(-1.91689e-09 0.00471972 7.89543e-14)
(-1.91579e-09 0.00472189 7.80472e-14)
(-1.91945e-09 0.00473133 1.42155e-13)
(-1.92502e-09 0.0047417 1.4399e-13)
(-1.92974e-09 0.00475206 1.42161e-13)
(-1.93428e-09 0.0047615 7.83444e-14)
(-1.93223e-09 0.00476367 7.85436e-14)
(-1.93667e-09 0.00477311 1.41734e-13)
(-1.94159e-09 0.00478347 1.44327e-13)
(-1.94685e-09 0.00479383 1.4187e-13)
(-1.95094e-09 0.00480328 7.85754e-14)
(-1.94927e-09 0.00480544 7.83463e-14)
(-1.9534e-09 0.00481489 1.41888e-13)
(-1.95858e-09 0.00482525 1.44189e-13)
(-1.96362e-09 0.00483561 1.41971e-13)
(-1.96789e-09 0.00484505 7.84836e-14)
(-1.96607e-09 0.00484722 7.84142e-14)
(-1.97033e-09 0.00485667 1.41826e-13)
(-1.9754e-09 0.00486703 1.44226e-13)
(-1.98053e-09 0.00487739 1.41931e-13)
(-1.98472e-09 0.00488683 7.85038e-14)
(-1.98297e-09 0.004889 7.83956e-14)
(-1.98717e-09 0.00489844 1.41828e-13)
(-1.9923e-09 0.0049088 1.4422e-13)
(-1.99737e-09 0.00491916 1.41916e-13)
(-2.00163e-09 0.00492861 7.85158e-14)
(-1.9998e-09 0.00493077 7.83681e-14)
(-2.00408e-09 0.00494022 1.41856e-13)
(-2.00912e-09 0.00495058 1.44169e-13)
(-2.01429e-09 0.00496094 1.41966e-13)
(-2.01843e-09 0.00497039 7.84408e-14)
(-2.01675e-09 0.00497255 7.84532e-14)
(-2.02085e-09 0.004982 1.41742e-13)
(-2.0261e-09 0.00499236 1.44295e-13)
(-2.03102e-09 0.00500272 1.418e-13)
(-2.03546e-09 0.00501216 7.86309e-14)
(-2.03342e-09 0.00501433 7.82158e-14)
(-2.03796e-09 0.00502377 1.4202e-13)
(-2.04268e-09 0.00503414 1.43947e-13)
(-2.04824e-09 0.0050445 1.42206e-13)
(-2.0519e-09 0.00505394 7.81303e-14)
(-2.0508e-09 0.00505611 7.88152e-14)
(-2.05421e-09 0.00506555 1.41321e-13)
(-2.0603e-09 0.00507592 1.45441e-13)
(-2.06428e-09 0.00508635 1.45502e-13)
(-2.07037e-09 0.00509672 1.41467e-13)
(-2.07378e-09 0.00510616 7.89507e-14)
(-2.07268e-09 0.00510833 7.80519e-14)
(-2.07634e-09 0.00511777 1.4216e-13)
(-2.0819e-09 0.00512813 1.43991e-13)
(-2.08662e-09 0.00513849 1.42159e-13)
(-2.09116e-09 0.00514794 7.83406e-14)
(-2.08912e-09 0.0051501 7.85491e-14)
(-2.09356e-09 0.00515955 1.41739e-13)
(-2.09848e-09 0.00516991 1.44329e-13)
(-2.10373e-09 0.00518027 1.41867e-13)
(-2.10783e-09 0.00518971 7.85737e-14)
(-2.10615e-09 0.00519188 7.83498e-14)
(-2.11029e-09 0.00520133 1.41896e-13)
(-2.11546e-09 0.00521169 1.44188e-13)
(-2.12051e-09 0.00522205 1.41973e-13)
(-2.12477e-09 0.00523149 7.8477e-14)
(-2.12296e-09 0.00523366 7.84243e-14)
(-2.12721e-09 0.0052431 1.41826e-13)
(-2.13229e-09 0.00525346 1.44236e-13)
(-2.13741e-09 0.00526383 1.41921e-13)
(-2.14162e-09 0.00527327 7.85122e-14)
(-2.13985e-09 0.00527544 7.8388e-14)
(-2.14407e-09 0.00528488 1.4185e-13)
(-2.14917e-09 0.00529524 1.44204e-13)
(-2.15427e-09 0.0053056 1.41939e-13)
(-2.15849e-09 0.00531505 7.84848e-14)
(-2.15672e-09 0.00531721 7.8409e-14)
(-2.16093e-09 0.00532666 1.4182e-13)
(-2.16605e-09 0.00533702 1.44225e-13)
(-2.17113e-09 0.00534738 1.41904e-13)
(-2.17538e-09 0.00535682 7.85149e-14)
(-2.17356e-09 0.00535899 7.83673e-14)
(-2.17783e-09 0.00536843 1.4186e-13)
(-2.18287e-09 0.0053788 1.44165e-13)
(-2.18804e-09 0.00538916 1.41962e-13)
(-2.19218e-09 0.0053986 7.8434e-14)
(-2.19051e-09 0.00540077 7.84576e-14)
(-2.19461e-09 0.00541021 1.41743e-13)
(-2.19985e-09 0.00542057 1.44294e-13)
(-2.20478e-09 0.00543093 1.41794e-13)
(-2.20922e-09 0.00544038 7.86265e-14)
(-2.20718e-09 0.00544254 7.82188e-14)
(-2.21172e-09 0.00545199 1.42023e-13)
(-2.21643e-09 0.00546235 1.43945e-13)
(-2.222e-09 0.00547271 1.42201e-13)
(-2.22566e-09 0.00548215 7.81255e-14)
(-2.22456e-09 0.00548432 7.88189e-14)
(-2.22796e-09 0.00549377 1.41323e-13)
(-2.23405e-09 0.00550413 1.4544e-13)
(-2.23804e-09 0.00551457 1.45496e-13)
(-2.24413e-09 0.00552493 1.41458e-13)
(-2.24753e-09 0.00553438 7.89438e-14)
(-2.24643e-09 0.00553654 7.80534e-14)
(-2.25009e-09 0.00554599 1.42159e-13)
(-2.25566e-09 0.00555635 1.43987e-13)
(-2.26038e-09 0.00556671 1.42151e-13)
(-2.26492e-09 0.00557615 7.83347e-14)
(-2.26288e-09 0.00557832 7.85502e-14)
(-2.26731e-09 0.00558776 1.41739e-13)
(-2.27224e-09 0.00559813 1.44324e-13)
(-2.27749e-09 0.00560849 1.41861e-13)
(-2.28159e-09 0.00561793 7.85664e-14)
(-2.27991e-09 0.0056201 7.83532e-14)
(-2.28405e-09 0.00562954 1.41894e-13)
(-2.28922e-09 0.0056399 1.44187e-13)
(-2.29426e-09 0.00565026 1.41963e-13)
(-2.29853e-09 0.00565971 7.84751e-14)
(-2.29671e-09 0.00566187 7.84216e-14)
(-2.30097e-09 0.00567132 1.41832e-13)
(-2.30604e-09 0.00568168 1.44226e-13)
(-2.31117e-09 0.00569204 1.41923e-13)
(-2.31536e-09 0.00570148 7.84961e-14)
(-2.31361e-09 0.00570365 7.84032e-14)
(-2.31781e-09 0.0057131 1.41835e-13)
(-2.32294e-09 0.00572346 1.44221e-13)
(-2.32801e-09 0.00573382 1.4191e-13)
(-2.33227e-09 0.00574326 7.85086e-14)
(-2.33045e-09 0.00574543 7.83763e-14)
(-2.33472e-09 0.00575487 1.41864e-13)
(-2.33976e-09 0.00576523 1.44171e-13)
(-2.34493e-09 0.00577559 1.41961e-13)
(-2.34907e-09 0.00578504 7.84344e-14)
(-2.34739e-09 0.0057872 7.84615e-14)
(-2.35149e-09 0.00579665 1.41751e-13)
(-2.35674e-09 0.00580701 1.44297e-13)
(-2.36166e-09 0.00581737 1.41796e-13)
(-2.3661e-09 0.00582681 7.86248e-14)
(-2.36406e-09 0.00582898 7.82246e-14)
(-2.3686e-09 0.00583843 1.42029e-13)
(-2.37332e-09 0.00584879 1.4395e-13)
(-2.37889e-09 0.00585915 1.42203e-13)
(-2.38255e-09 0.00586859 7.81248e-14)
(-2.38145e-09 0.00587076 7.88243e-14)
(-2.38485e-09 0.0058802 1.41331e-13)
(-2.39094e-09 0.00589057 1.45445e-13)
(-2.39493e-09 0.005901 1.45497e-13)
(-2.40101e-09 0.00591137 1.41456e-13)
(-2.40442e-09 0.00592081 7.89414e-14)
(-2.40332e-09 0.00592298 7.8057e-14)
(-2.40698e-09 0.00593243 1.42163e-13)
(-2.41255e-09 0.00594279 1.43988e-13)
(-2.41726e-09 0.00595315 1.4215e-13)
(-2.4218e-09 0.00596259 7.8332e-14)
(-2.41976e-09 0.00596476 7.85546e-14)
(-2.4242e-09 0.0059742 1.41743e-13)
(-2.42912e-09 0.00598456 1.44327e-13)
(-2.43437e-09 0.00599492 1.41858e-13)
(-2.43847e-09 0.00600437 7.85658e-14)
(-2.43679e-09 0.00600653 7.83555e-14)
(-2.44093e-09 0.00601598 1.41901e-13)
(-2.4461e-09 0.00602634 1.44186e-13)
(-2.45115e-09 0.0060367 1.41965e-13)
(-2.45542e-09 0.00604614 7.84694e-14)
(-2.4536e-09 0.00604831 7.84306e-14)
(-2.45785e-09 0.00605776 1.41831e-13)
(-2.46293e-09 0.00606812 1.44236e-13)
(-2.46805e-09 0.00607848 1.41914e-13)
(-2.47226e-09 0.00608792 7.85054e-14)
(-2.47049e-09 0.00609009 7.83943e-14)
(-2.47471e-09 0.00609953 1.41856e-13)
(-2.47981e-09 0.00610989 1.44204e-13)
(-2.48491e-09 0.00612025 1.41934e-13)
(-2.48913e-09 0.0061297 7.84783e-14)
(-2.48736e-09 0.00613187 7.84158e-14)
(-2.49157e-09 0.00614131 1.41827e-13)
(-2.49669e-09 0.00615167 1.44225e-13)
(-2.50177e-09 0.00616203 1.41899e-13)
(-2.50602e-09 0.00617148 7.85091e-14)
(-2.5042e-09 0.00617364 7.83743e-14)
(-2.50847e-09 0.00618309 1.41868e-13)
(-2.51352e-09 0.00619345 1.44166e-13)
(-2.51869e-09 0.00620381 1.41958e-13)
(-2.52283e-09 0.00621325 7.84285e-14)
(-2.52115e-09 0.00621542 7.84651e-14)
(-2.52525e-09 0.00622486 1.41751e-13)
(-2.5305e-09 0.00623523 1.44296e-13)
(-2.53542e-09 0.00624559 1.41791e-13)
(-2.53986e-09 0.00625503 7.86217e-14)
(-2.53782e-09 0.0062572 7.82264e-14)
(-2.54236e-09 0.00626664 1.42031e-13)
(-2.54707e-09 0.006277 1.43948e-13)
(-2.55264e-09 0.00628736 1.42199e-13)
(-2.5563e-09 0.00629681 7.81208e-14)
(-2.5552e-09 0.00629897 7.88272e-14)
(-2.55861e-09 0.00630842 1.41332e-13)
(-2.56469e-09 0.00631878 1.45444e-13)
(-2.56868e-09 0.00632922 1.45493e-13)
(-2.57477e-09 0.00633958 1.4145e-13)
(-2.57818e-09 0.00634903 7.89358e-14)
(-2.57707e-09 0.00635119 7.80582e-14)
(-2.58074e-09 0.00636064 1.42162e-13)
(-2.5863e-09 0.006371 1.43984e-13)
(-2.59102e-09 0.00638136 1.42143e-13)
(-2.59556e-09 0.00639081 7.83276e-14)
(-2.59352e-09 0.00639297 7.85549e-14)
(-2.59796e-09 0.00640242 1.41743e-13)
(-2.60288e-09 0.00641278 1.44322e-13)
(-2.60813e-09 0.00642314 1.41854e-13)
(-2.61223e-09 0.00643258 7.85596e-14)
(-2.61055e-09 0.00643475 7.83584e-14)
(-2.61469e-09 0.00644419 1.41898e-13)
(-2.61986e-09 0.00645455 1.44186e-13)