/*--------------------------------*- C++ -*----------------------------------*\
| =========                 |                                                 |
| \\      /  F ield         | OpenFOAM: The Open Source CFD Toolbox           |
|  \\    /   O peration     | Version:  2206                                  |
|   \\  /    A nd           | Website:  www.openfoam.com                      |
|    \\/     M anipulation  |                                                 |
\*---------------------------------------------------------------------------*/
FoamFile
{
    version     2.0;
    format      ascii;
    arch        "LSB;label=32;scalar=64";
    class       volVectorField;
    location    "200";
    object      U;
}
// * * * * * * * * * * * * * * * * * * * * * * * * * * * * * * * * * * * * * //

dimensions      [0 1 -1 0 0 0 0];

internalField   nonuniform List<vector> 
100000
(
(-7.06296e-12 6.17769e-06 -2.15972e-13)
(-5.40065e-12 1.12688e-05 1.30518e-13)
(-8.74523e-12 2.06167e-05 1.41071e-13)
(-1.51167e-11 3.06607e-05 1.34713e-13)
(-1.77839e-11 3.98012e-05 7.82052e-14)
(-1.66451e-11 4.19607e-05 7.94108e-14)
(-1.9326e-11 5.12961e-05 1.42145e-13)
(-2.52983e-11 6.14542e-05 1.41432e-13)
(-2.9677e-11 7.15987e-05 1.41052e-13)
(-3.43739e-11 8.08153e-05 7.87047e-14)
(-3.2189e-11 8.29155e-05 7.49661e-14)
(-3.64965e-11 9.22284e-05 1.35575e-13)
(-4.1535e-11 0.00010239 1.4188e-13)
(-4.63856e-11 0.000112542 1.40444e-13)
(-5.08493e-11 0.00012178 7.92761e-14)
(-4.87449e-11 0.000123869 7.45132e-14)
(-5.33249e-11 0.000133171 1.37379e-13)
(-5.78709e-11 0.000143333 1.41153e-13)
(-6.34214e-11 0.000153488 1.40862e-13)
(-6.6994e-11 0.000162736 7.80048e-14)
(-6.59608e-11 0.000164821 7.56763e-14)
(-6.92857e-11 0.000174117 1.37305e-13)
(-7.52936e-11 0.000184283 1.42529e-13)
(-7.92097e-11 0.000194511 1.44061e-13)
(-8.52335e-11 0.000204671 1.41132e-13)
(-8.86069e-11 0.000213926 7.92126e-14)
(-8.74741e-11 0.000216009 7.59526e-14)
(-9.11069e-11 0.0002253 1.39638e-13)
(-9.65701e-11 0.000235462 1.42305e-13)
(-1.01257e-10 0.000245619 1.41447e-13)
(-1.05719e-10 0.000254877 7.82527e-14)
(-1.03699e-10 0.000256959 7.65483e-14)
(-1.08062e-10 0.000266248 1.39181e-13)
(-1.12925e-10 0.000276409 1.42475e-13)
(-1.18097e-10 0.000286567 1.40853e-13)
(-1.22158e-10 0.000295827 7.82586e-14)
(-1.2047e-10 0.000297909 7.64063e-14)
(-1.24566e-10 0.000307196 1.39318e-13)
(-1.29645e-10 0.000317357 1.42209e-13)
(-1.34638e-10 0.000327515 1.40733e-13)
(-1.38841e-10 0.000336777 7.79938e-14)
(-1.3704e-10 0.000338859 7.65216e-14)
(-1.4123e-10 0.000348144 1.39238e-13)
(-1.46233e-10 0.000358305 1.42158e-13)
(-1.51283e-10 0.000368463 1.40511e-13)
(-1.55439e-10 0.000377726 7.78967e-14)
(-1.53678e-10 0.000379808 7.65189e-14)
(-1.57839e-10 0.000389092 1.39254e-13)
(-1.62861e-10 0.000399253 1.42048e-13)
(-1.67898e-10 0.000409411 1.40395e-13)
(-1.72058e-10 0.000418676 7.77621e-14)
(-1.70301e-10 0.000420757 7.65698e-14)
(-1.74453e-10 0.00043004 1.39215e-13)
(-1.79491e-10 0.000440201 1.4201e-13)
(-1.84502e-10 0.00045036 1.40247e-13)
(-1.88695e-10 0.000459625 7.77083e-14)
(-1.86897e-10 0.000461706 7.65497e-14)
(-1.91104e-10 0.000470988 1.39253e-13)
(-1.96072e-10 0.000481149 1.41899e-13)
(-2.01169e-10 0.000491308 1.40216e-13)
(-2.05254e-10 0.000500574 7.75561e-14)
(-2.0359e-10 0.000502655 7.66595e-14)
(-2.07635e-10 0.000511937 1.39134e-13)
(-2.128e-10 0.000522098 1.41985e-13)
(-2.17656e-10 0.000532256 1.39975e-13)
(-2.22033e-10 0.000541523 7.76844e-14)
(-2.20014e-10 0.000543604 7.64438e-14)
(-2.2449e-10 0.000552885 1.39403e-13)
(-2.29133e-10 0.000563046 1.41612e-13)
(-2.3462e-10 0.000573205 1.40305e-13)
(-2.38233e-10 0.000582472 7.71489e-14)
(-2.37139e-10 0.000584553 7.70385e-14)
(-2.40501e-10 0.000593834 1.38727e-13)
(-2.46491e-10 0.000603999 1.43036e-13)
(-2.50425e-10 0.000614227 1.43521e-13)
(-2.56422e-10 0.00062439 1.39906e-13)
(-2.59796e-10 0.000633658 7.81287e-14)
(-2.58676e-10 0.000635739 7.65199e-14)
(-2.62303e-10 0.000645019 1.39933e-13)
(-2.67773e-10 0.00065518 1.41978e-13)
(-2.7244e-10 0.000665339 1.4053e-13)
(-2.76908e-10 0.000674607 7.74671e-14)
(-2.74887e-10 0.000676688 7.70121e-14)
(-2.79257e-10 0.000685967 1.39491e-13)
(-2.84115e-10 0.000696128 1.42265e-13)
(-2.89286e-10 0.000706287 1.4018e-13)
(-2.93338e-10 0.000715556 7.76478e-14)
(-2.91661e-10 0.000717636 7.68181e-14)
(-2.95749e-10 0.000726916 1.39618e-13)
(-3.00838e-10 0.000737076 1.42092e-13)
(-3.05817e-10 0.000747236 1.4022e-13)
(-3.10027e-10 0.000756504 7.75204e-14)
(-3.08221e-10 0.000758585 7.68807e-14)
(-3.12418e-10 0.000767864 1.3954e-13)
(-3.17414e-10 0.000778025 1.42091e-13)
(-3.22472e-10 0.000788184 1.40133e-13)
(-3.26612e-10 0.000797453 7.7503e-14)
(-3.24869e-10 0.000799534 7.68628e-14)
(-3.29009e-10 0.000808813 1.39524e-13)
(-3.3406e-10 0.000818973 1.42055e-13)
(-3.39061e-10 0.000829133 1.40073e-13)
(-3.43261e-10 0.000838402 7.74836e-14)
(-3.41455e-10 0.000840483 7.6835e-14)
(-3.45666e-10 0.000849761 1.39537e-13)
(-3.50635e-10 0.000859922 1.41978e-13)
(-3.55732e-10 0.000870081 1.40082e-13)
(-3.59816e-10 0.000879351 7.73827e-14)
(-3.58149e-10 0.000881431 7.69167e-14)
(-3.62195e-10 0.00089071 1.39415e-13)
(-3.67363e-10 0.00090087 1.42074e-13)
(-3.72218e-10 0.00091103 1.39886e-13)
(-3.76594e-10 0.000920299 7.75411e-14)
(-3.74574e-10 0.00092238 7.66865e-14)
(-3.79049e-10 0.000931658 1.39673e-13)
(-3.83697e-10 0.000941819 1.41715e-13)
(-3.8918e-10 0.000951978 1.40248e-13)
(-3.92796e-10 0.000961248 7.70317e-14)
(-3.91696e-10 0.000963329 7.72688e-14)
(-3.9506e-10 0.000972607 1.38982e-13)
(-4.01052e-10 0.000982772 1.43151e-13)
(-4.04986e-10 0.000993 1.43451e-13)
(-4.10982e-10 0.00100316 1.39707e-13)
(-4.14354e-10 0.00101243 7.79422e-14)
(-4.13238e-10 0.00101451 7.66415e-14)
(-4.16862e-10 0.00102379 1.40019e-13)
(-4.22335e-10 0.00103395 1.41936e-13)
(-4.26999e-10 0.00104411 1.40364e-13)
(-4.31468e-10 0.00105338 7.73103e-14)
(-4.29447e-10 0.00105546 7.713e-14)
(-4.33818e-10 0.00106474 1.39584e-13)
(-4.38676e-10 0.0010749 1.42243e-13)
(-4.43846e-10 0.00108506 1.40043e-13)
(-4.47898e-10 0.00109433 7.75166e-14)
(-4.46221e-10 0.00109641 7.69301e-14)
(-4.5031e-10 0.00110569 1.39721e-13)
(-4.55398e-10 0.00111585 1.42082e-13)
(-4.60379e-10 0.00112601 1.40115e-13)
(-4.64585e-10 0.00113528 7.74024e-14)
(-4.62783e-10 0.00113736 7.69974e-14)
(-4.66974e-10 0.00114664 1.39639e-13)
(-4.7198e-10 0.0011568 1.42106e-13)
(-4.77026e-10 0.00116696 1.40037e-13)
(-4.8118e-10 0.00117623 7.74167e-14)
(-4.7942e-10 0.00117831 7.69589e-14)
(-4.83581e-10 0.00118759 1.39648e-13)
(-4.88607e-10 0.00119775 1.42055e-13)
(-4.93639e-10 0.00120791 1.40028e-13)
(-4.97799e-10 0.00121718 7.73731e-14)
(-4.96041e-10 0.00121926 7.69753e-14)
(-5.00193e-10 0.00122853 1.39607e-13)
(-5.05235e-10 0.0012387 1.42056e-13)
(-5.10243e-10 0.00124885 1.3997e-13)
(-5.14436e-10 0.00125813 7.73856e-14)
(-5.12635e-10 0.00126021 7.69321e-14)
(-5.16843e-10 0.00126948 1.39634e-13)
(-5.21816e-10 0.00127964 1.41981e-13)
(-5.26909e-10 0.0012898 1.40005e-13)
(-5.30996e-10 0.00129907 7.72922e-14)
(-5.29326e-10 0.00130116 7.70167e-14)
(-5.33374e-10 0.00131043 1.3951e-13)
(-5.38541e-10 0.00132059 1.42091e-13)
(-5.43397e-10 0.00133075 1.3982e-13)
(-5.47772e-10 0.00134002 7.74656e-14)
(-5.45752e-10 0.0013421 7.67815e-14)
(-5.50226e-10 0.00135138 1.39773e-13)
(-5.54877e-10 0.00136154 1.41736e-13)
(-5.60358e-10 0.0013717 1.40199e-13)
(-5.63975e-10 0.00138097 7.69629e-14)
(-5.62873e-10 0.00138305 7.73661e-14)
(-5.66239e-10 0.00139233 1.39079e-13)
(-5.72231e-10 0.00140249 1.43184e-13)
(-5.76165e-10 0.00141272 1.43394e-13)
(-5.8216e-10 0.00142289 1.3959e-13)
(-5.85531e-10 0.00143216 7.78374e-14)
(-5.84417e-10 0.00143424 7.66909e-14)
(-5.8804e-10 0.00144351 1.40038e-13)
(-5.93515e-10 0.00145368 1.41894e-13)
(-5.98176e-10 0.00146383 1.40257e-13)
(-6.02646e-10 0.00147311 7.7221e-14)
(-6.00626e-10 0.00147519 7.71764e-14)
(-6.04998e-10 0.00148446 1.39613e-13)
(-6.09854e-10 0.00149462 1.42208e-13)
(-6.15024e-10 0.00150478 1.39954e-13)
(-6.19075e-10 0.00151405 7.74334e-14)
(-6.17401e-10 0.00151614 7.69812e-14)
(-6.21488e-10 0.00152541 1.39751e-13)
(-6.26579e-10 0.00153557 1.42061e-13)
(-6.31555e-10 0.00154573 1.40032e-13)
(-6.35765e-10 0.001555 7.73344e-14)
(-6.33959e-10 0.00155708 7.70416e-14)
(-6.38157e-10 0.00156636 1.39682e-13)
(-6.43154e-10 0.00157652 1.42082e-13)
(-6.4821e-10 0.00158668 1.39978e-13)
(-6.52351e-10 0.00159595 7.73413e-14)
(-6.50607e-10 0.00159803 7.70219e-14)
(-6.54747e-10 0.00160731 1.39673e-13)
(-6.598e-10 0.00161747 1.42065e-13)
(-6.648e-10 0.00162763 1.39947e-13)
(-6.68999e-10 0.0016369 7.73439e-14)
(-6.67193e-10 0.00163898 7.69912e-14)
(-6.71404e-10 0.00164826 1.39693e-13)
(-6.76375e-10 0.00165842 1.42003e-13)
(-6.8147e-10 0.00166858 1.39983e-13)
(-6.85555e-10 0.00167785 7.72607e-14)
(-6.83886e-10 0.00167993 7.70718e-14)
(-6.87933e-10 0.00168921 1.39574e-13)
(-6.93102e-10 0.00169937 1.42115e-13)
(-6.97957e-10 0.00170953 1.39806e-13)
(-7.02332e-10 0.0017188 7.74376e-14)
(-7.00312e-10 0.00172088 7.68369e-14)
(-7.04785e-10 0.00173015 1.39838e-13)
(-7.09437e-10 0.00174031 1.41764e-13)
(-7.14918e-10 0.00175047 1.40191e-13)
(-7.18536e-10 0.00175975 7.69381e-14)
(-7.17432e-10 0.00176183 7.74227e-14)
(-7.20798e-10 0.0017711 1.39143e-13)
(-7.26791e-10 0.00178127 1.43216e-13)
(-7.30725e-10 0.0017915 1.43381e-13)
(-7.3672e-10 0.00180166 1.39546e-13)
(-7.40091e-10 0.00181093 7.77937e-14)
(-7.38977e-10 0.00181301 7.67238e-14)
(-7.426e-10 0.00182229 1.40063e-13)
(-7.48075e-10 0.00183245 1.41888e-13)
(-7.52736e-10 0.00184261 1.40219e-13)
(-7.57206e-10 0.00185188 7.71829e-14)
(-7.55186e-10 0.00185396 7.72094e-14)
(-7.59557e-10 0.00186324 1.39641e-13)
(-7.64415e-10 0.0018734 1.42207e-13)
(-7.69584e-10 0.00188356 1.39921e-13)
(-7.73635e-10 0.00189283 7.74004e-14)
(-7.7196e-10 0.00189491 7.70135e-14)
(-7.76049e-10 0.00190419 1.39784e-13)
(-7.81138e-10 0.00191435 1.42061e-13)
(-7.86117e-10 0.00192451 1.40008e-13)
(-7.90323e-10 0.00193378 7.73009e-14)
(-7.88522e-10 0.00193586 7.70798e-14)
(-7.92713e-10 0.00194513 1.39711e-13)
(-7.97719e-10 0.00195529 1.42095e-13)
(-8.02764e-10 0.00196545 1.39949e-13)
(-8.06918e-10 0.00197473 7.73243e-14)
(-8.05158e-10 0.00197681 7.70446e-14)
(-8.09319e-10 0.00198608 1.39724e-13)
(-8.14346e-10 0.00199624 1.42057e-13)
(-8.19377e-10 0.0020064 1.39952e-13)
(-8.23538e-10 0.00201568 7.72933e-14)
(-8.21779e-10 0.00201776 7.70592e-14)
(-8.25932e-10 0.00202703 1.3969e-13)
(-8.30974e-10 0.00203719 1.42065e-13)
(-8.35982e-10 0.00204735 1.3991e-13)
(-8.40174e-10 0.00205662 7.73125e-14)
(-8.38374e-10 0.0020587 7.70191e-14)
(-8.42581e-10 0.00206798 1.3972e-13)
(-8.47555e-10 0.00207814 1.42001e-13)
(-8.52647e-10 0.0020883 1.39954e-13)
(-8.56734e-10 0.00209757 7.72302e-14)
(-8.55063e-10 0.00209965 7.71015e-14)
(-8.59112e-10 0.00210893 1.39603e-13)
(-8.6428e-10 0.00211909 1.42116e-13)
(-8.69136e-10 0.00212925 1.39783e-13)
(-8.7351e-10 0.00213852 7.74089e-14)
(-8.71491e-10 0.0021406 7.68688e-14)
(-8.75963e-10 0.00214988 1.39867e-13)
(-8.80616e-10 0.00216004 1.4177e-13)
(-8.86096e-10 0.0021702 1.4017e-13)
(-8.89715e-10 0.00217947 7.69144e-14)
(-8.8861e-10 0.00218155 7.7453e-14)
(-8.91977e-10 0.00219083 1.39176e-13)
(-8.97969e-10 0.00220099 1.43223e-13)
(-9.01904e-10 0.00221122 1.43359e-13)
(-9.07898e-10 0.00222138 1.395e-13)
(-9.11268e-10 0.00223066 7.77564e-14)
(-9.10156e-10 0.00223274 7.6738e-14)
(-9.13779e-10 0.00224201 1.40069e-13)
(-9.19254e-10 0.00225217 1.41868e-13)
(-9.23914e-10 0.00226233 1.40179e-13)
(-9.28385e-10 0.0022716 7.71467e-14)
(-9.26364e-10 0.00227368 7.72268e-14)
(-9.30737e-10 0.00228296 1.39647e-13)
(-9.35593e-10 0.00229312 1.42193e-13)
(-9.40763e-10 0.00230328 1.39883e-13)
(-9.44812e-10 0.00231255 7.73689e-14)
(-9.43139e-10 0.00231463 7.70301e-14)
(-9.47226e-10 0.00232391 1.39793e-13)
(-9.52318e-10 0.00233407 1.4205e-13)
(-9.57293e-10 0.00234423 1.39974e-13)
(-9.61504e-10 0.0023535 7.72731e-14)
(-9.59697e-10 0.00235558 7.70952e-14)
(-9.63895e-10 0.00236486 1.39726e-13)
(-9.68893e-10 0.00237502 1.42081e-13)
(-9.73948e-10 0.00238518 1.39926e-13)
(-9.78089e-10 0.00239445 7.72893e-14)
(-9.76346e-10 0.00239653 7.70733e-14)
(-9.80486e-10 0.00240581 1.39724e-13)
(-9.85539e-10 0.00241597 1.42067e-13)
(-9.90538e-10 0.00242613 1.39906e-13)
(-9.94737e-10 0.0024354 7.7294e-14)
(-9.92931e-10 0.00243748 7.7047e-14)
(-9.97142e-10 0.00244675 1.39745e-13)
(-1.00211e-09 0.00245691 1.42014e-13)
(-1.00721e-09 0.00246707 1.39945e-13)
(-1.01129e-09 0.00247635 7.72193e-14)
(-1.00962e-09 0.00247843 7.71251e-14)
(-1.01367e-09 0.0024877 1.39632e-13)
(-1.01884e-09 0.00249786 1.42127e-13)
(-1.0237e-09 0.00250802 1.39779e-13)
(-1.02807e-09 0.0025173 7.73977e-14)
(-1.02605e-09 0.00251938 7.68942e-14)
(-1.03052e-09 0.00252865 1.39897e-13)
(-1.03518e-09 0.00253881 1.41784e-13)
(-1.04066e-09 0.00254897 1.40168e-13)
(-1.04428e-09 0.00255824 7.6905e-14)
(-1.04317e-09 0.00256032 7.74786e-14)
(-1.04654e-09 0.0025696 1.39207e-13)
(-1.05253e-09 0.00257976 1.43239e-13)
(-1.05646e-09 0.00258999 1.43356e-13)
(-1.06246e-09 0.00260016 1.39482e-13)
(-1.06583e-09 0.00260943 7.77384e-14)
(-1.06472e-09 0.00261151 7.67536e-14)
(-1.06834e-09 0.00262079 1.40082e-13)
(-1.07381e-09 0.00263095 1.41866e-13)
(-1.07847e-09 0.00264111 1.40163e-13)
(-1.08294e-09 0.00265038 7.71301e-14)
(-1.08092e-09 0.00265246 7.72433e-14)
(-1.0853e-09 0.00266173 1.39662e-13)
(-1.09015e-09 0.00267189 1.42194e-13)
(-1.09532e-09 0.00268205 1.39869e-13)
(-1.09937e-09 0.00269133 7.73555e-14)
(-1.0977e-09 0.00269341 7.70451e-14)
(-1.10179e-09 0.00270268 1.39812e-13)
(-1.10688e-09 0.00271284 1.4205e-13)
(-1.11185e-09 0.002723 1.39966e-13)
(-1.11606e-09 0.00273228 7.72564e-14)
(-1.11426e-09 0.00273436 7.71166e-14)
(-1.11845e-09 0.00274363 1.39738e-13)
(-1.12346e-09 0.00275379 1.42092e-13)
(-1.1285e-09 0.00276395 1.39909e-13)
(-1.13266e-09 0.00277322 7.72876e-14)
(-1.1309e-09 0.0027753 7.70785e-14)
(-1.13506e-09 0.00278458 1.39758e-13)
(-1.14009e-09 0.00279474 1.42055e-13)
(-1.14512e-09 0.0028049 1.39922e-13)
(-1.14928e-09 0.00281417 7.72563e-14)
(-1.14752e-09 0.00281625 7.70981e-14)
(-1.15167e-09 0.00282553 1.39724e-13)
(-1.15671e-09 0.00283569 1.42071e-13)
(-1.16172e-09 0.00284585 1.39881e-13)
(-1.16591e-09 0.00285512 7.72829e-14)
(-1.16411e-09 0.0028572 7.7055e-14)
(-1.16832e-09 0.00286648 1.39761e-13)
(-1.17329e-09 0.00287664 1.42007e-13)
(-1.17839e-09 0.0028868 1.39933e-13)
(-1.18247e-09 0.00289607 7.71998e-14)
(-1.1808e-09 0.00289815 7.71424e-14)
(-1.18485e-09 0.00290743 1.39642e-13)
(-1.19002e-09 0.00291759 1.4213e-13)
(-1.19487e-09 0.00292775 1.39763e-13)
(-1.19925e-09 0.00293702 7.73858e-14)
(-1.19723e-09 0.0029391 7.6906e-14)
(-1.2017e-09 0.00294837 1.39913e-13)
(-1.20636e-09 0.00295853 1.41782e-13)
(-1.21183e-09 0.00296869 1.40159e-13)
(-1.21545e-09 0.00297797 7.68891e-14)
(-1.21435e-09 0.00298005 7.74962e-14)
(-1.21772e-09 0.00298932 1.39218e-13)
(-1.22371e-09 0.00299949 1.43244e-13)
(-1.22764e-09 0.00300972 1.4334e-13)
(-1.23364e-09 0.00301988 1.3946e-13)
(-1.23701e-09 0.00302915 7.77153e-14)
(-1.2359e-09 0.00303123 7.67633e-14)
(-1.23952e-09 0.00304051 1.40081e-13)
(-1.24499e-09 0.00305067 1.41858e-13)
(-1.24965e-09 0.00306083 1.40138e-13)
(-1.25412e-09 0.0030701 7.7114e-14)
(-1.2521e-09 0.00307218 7.7248e-14)
(-1.25648e-09 0.00308146 1.39667e-13)
(-1.26133e-09 0.00309162 1.42182e-13)
(-1.2665e-09 0.00310178 1.39851e-13)
(-1.27055e-09 0.00311105 7.73345e-14)
(-1.26888e-09 0.00311313 7.7057e-14)
(-1.27296e-09 0.00312241 1.39811e-13)
(-1.27806e-09 0.00313257 1.42047e-13)
(-1.28303e-09 0.00314273 1.39942e-13)
(-1.28724e-09 0.003152 7.72458e-14)
(-1.28544e-09 0.00315408 7.71186e-14)
(-1.28963e-09 0.00316335 1.39751e-13)
(-1.29463e-09 0.00317351 1.42077e-13)
(-1.29969e-09 0.00318367 1.39902e-13)
(-1.30383e-09 0.00319295 7.72602e-14)
(-1.30208e-09 0.00319503 7.71021e-14)
(-1.30622e-09 0.0032043 1.39747e-13)
(-1.31128e-09 0.00321446 1.4207e-13)
(-1.31628e-09 0.00322462 1.39882e-13)
(-1.32048e-09 0.0032339 7.72719e-14)
(-1.31867e-09 0.00323598 7.70722e-14)
(-1.32288e-09 0.00324525 1.39774e-13)
(-1.32785e-09 0.00325541 1.42016e-13)
(-1.33295e-09 0.00326557 1.39929e-13)
(-1.33703e-09 0.00327484 7.7195e-14)
(-1.33536e-09 0.00327692 7.71556e-14)
(-1.33941e-09 0.0032862 1.39659e-13)
(-1.34458e-09 0.00329636 1.42137e-13)
(-1.34943e-09 0.00330652 1.39762e-13)
(-1.35381e-09 0.00331579 7.73803e-14)
(-1.35179e-09 0.00331787 7.69207e-14)
(-1.35626e-09 0.00332715 1.39931e-13)
(-1.36092e-09 0.00333731 1.41791e-13)
(-1.36639e-09 0.00334747 1.40159e-13)
(-1.37001e-09 0.00335674 7.68844e-14)
(-1.36891e-09 0.00335882 7.75112e-14)
(-1.37228e-09 0.0033681 1.39236e-13)
(-1.37827e-09 0.00337826 1.43254e-13)
(-1.3822e-09 0.00338849 1.43339e-13)
(-1.3882e-09 0.00339865 1.39451e-13)
(-1.39157e-09 0.00340793 7.77057e-14)
(-1.39046e-09 0.00341001 7.67728e-14)
(-1.39408e-09 0.00341928 1.40089e-13)
(-1.39955e-09 0.00342944 1.41858e-13)
(-1.40421e-09 0.0034396 1.4013e-13)
(-1.40868e-09 0.00344888 7.71052e-14)
(-1.40666e-09 0.00345096 7.72581e-14)
(-1.41104e-09 0.00346023 1.39676e-13)
(-1.41589e-09 0.00347039 1.42184e-13)
(-1.42106e-09 0.00348055 1.39844e-13)
(-1.42511e-09 0.00348982 7.73278e-14)
(-1.42344e-09 0.0034919 7.70658e-14)
(-1.42753e-09 0.00350118 1.39824e-13)
(-1.43262e-09 0.00351134 1.42047e-13)
(-1.43759e-09 0.0035215 1.3994e-13)
(-1.4418e-09 0.00353077 7.72355e-14)
(-1.44e-09 0.00353285 7.71332e-14)
(-1.44419e-09 0.00354213 1.39757e-13)
(-1.4492e-09 0.00355229 1.42087e-13)
(-1.45424e-09 0.00356245 1.39891e-13)
(-1.4584e-09 0.00357172 7.72637e-14)
(-1.45664e-09 0.0035738 7.71009e-14)
(-1.4608e-09 0.00358308 1.39774e-13)
(-1.46582e-09 0.00359324 1.42057e-13)
(-1.47085e-09 0.0036034 1.39901e-13)
(-1.47501e-09 0.00361267 7.72393e-14)
(-1.47326e-09 0.00361475 7.71162e-14)
(-1.47741e-09 0.00362403 1.39747e-13)
(-1.48245e-09 0.00363419 1.42071e-13)
(-1.48746e-09 0.00364435 1.39868e-13)
(-1.49165e-09 0.00365362 7.72626e-14)
(-1.48985e-09 0.0036557 7.70789e-14)
(-1.49406e-09 0.00366497 1.3978e-13)
(-1.49903e-09 0.00367513 1.42014e-13)
(-1.50412e-09 0.00368529 1.39918e-13)
(-1.50821e-09 0.00369457 7.71863e-14)
(-1.50654e-09 0.00369665 7.71618e-14)
(-1.51059e-09 0.00370592 1.39668e-13)
(-1.51576e-09 0.00371608 1.42134e-13)
(-1.52061e-09 0.00372624 1.39755e-13)
(-1.52499e-09 0.00373552 7.73688e-14)
(-1.52297e-09 0.0037376 7.69311e-14)
(-1.52744e-09 0.00374687 1.39936e-13)
(-1.53209e-09 0.00375703 1.41793e-13)
(-1.53757e-09 0.00376719 1.40149e-13)
(-1.54119e-09 0.00377646 7.68783e-14)
(-1.54009e-09 0.00377854 7.75173e-14)
(-1.54345e-09 0.00378782 1.39247e-13)
(-1.54945e-09 0.00379798 1.43252e-13)
(-1.55338e-09 0.00380821 1.43333e-13)
(-1.55938e-09 0.00381838 1.39433e-13)
(-1.56274e-09 0.00382765 7.76953e-14)
(-1.56163e-09 0.00382973 7.6774e-14)
(-1.56526e-09 0.00383901 1.40092e-13)
(-1.57073e-09 0.00384917 1.41848e-13)
(-1.57539e-09 0.00385933 1.40118e-13)
(-1.57986e-09 0.0038686 7.70908e-14)
(-1.57784e-09 0.00387068 7.72645e-14)
(-1.58221e-09 0.00387995 1.39675e-13)
(-1.58707e-09 0.00389011 1.4218e-13)
(-1.59224e-09 0.00390027 1.39829e-13)
(-1.59629e-09 0.00390955 7.73182e-14)
(-1.59462e-09 0.00391163 7.70689e-14)
(-1.5987e-09 0.0039209 1.39826e-13)
(-1.6038e-09 0.00393106 1.42041e-13)
(-1.60877e-09 0.00394122 1.39928e-13)
(-1.61298e-09 0.0039505 7.72256e-14)
(-1.61117e-09 0.00395258 7.71366e-14)
(-1.61537e-09 0.00396185 1.39762e-13)
(-1.62037e-09 0.00397201 1.42079e-13)
(-1.62543e-09 0.00398217 1.39884e-13)
(-1.62957e-09 0.00399144 7.72469e-14)
(-1.62782e-09 0.00399352 7.71153e-14)
(-1.63196e-09 0.0040028 1.39765e-13)
(-1.63702e-09 0.00401296 1.42069e-13)
(-1.64202e-09 0.00402312 1.39872e-13)
(-1.64621e-09 0.00403239 7.72544e-14)
(-1.64441e-09 0.00403447 7.70916e-14)
(-1.64862e-09 0.00404375 1.39788e-13)
(-1.65359e-09 0.00405391 1.42022e-13)
(-1.65869e-09 0.00406407 1.39916e-13)
(-1.66277e-09 0.00407334 7.71844e-14)
(-1.6611e-09 0.00407542 7.717e-14)
(-1.66515e-09 0.0040847 1.3968e-13)
(-1.67032e-09 0.00409486 1.42139e-13)
(-1.67517e-09 0.00410502 1.39756e-13)
(-1.67955e-09 0.00411429 7.73653e-14)
(-1.67753e-09 0.00411637 7.69412e-14)
(-1.682e-09 0.00412565 1.39947e-13)
(-1.68665e-09 0.00413581 1.418e-13)
(-1.69213e-09 0.00414597 1.4015e-13)
(-1.69575e-09 0.00415524 7.6876e-14)
(-1.69465e-09 0.00415732 7.75271e-14)
(-1.69801e-09 0.00416659 1.39259e-13)
(-1.70401e-09 0.00417676 1.43259e-13)
(-1.70794e-09 0.00418699 1.43333e-13)
(-1.71394e-09 0.00419715 1.39428e-13)
(-1.71731e-09 0.00420642 7.76897e-14)
(-1.71619e-09 0.0042085 7.67803e-14)
(-1.71982e-09 0.00421778 1.40098e-13)
(-1.72529e-09 0.00422794 1.41849e-13)
(-1.72995e-09 0.0042381 1.40114e-13)
(-1.73442e-09 0.00424737 7.70853e-14)
(-1.7324e-09 0.00424945 7.72717e-14)
(-1.73677e-09 0.00425873 1.39681e-13)
(-1.74163e-09 0.00426889 1.42182e-13)
(-1.7468e-09 0.00427905 1.39824e-13)
(-1.75085e-09 0.00428832 7.73148e-14)
(-1.74918e-09 0.0042904 7.70742e-14)
(-1.75326e-09 0.00429968 1.39835e-13)
(-1.75835e-09 0.00430984 1.42041e-13)
(-1.76333e-09 0.00432 1.39928e-13)
(-1.76754e-09 0.00432927 7.72179e-14)
(-1.76574e-09 0.00433135 7.71482e-14)
(-1.76993e-09 0.00434063 1.39764e-13)
(-1.77494e-09 0.00435079 1.42089e-13)
(-1.77998e-09 0.00436095 1.39874e-13)
(-1.78413e-09 0.00437022 7.72532e-14)
(-1.78237e-09 0.0043723 7.71105e-14)
(-1.78653e-09 0.00438157 1.39789e-13)
(-1.79156e-09 0.00439173 1.42054e-13)
(-1.79659e-09 0.00440189 1.39893e-13)
(-1.80075e-09 0.00441117 7.72238e-14)
(-1.79899e-09 0.00441325 7.71324e-14)
(-1.80315e-09 0.00442252 1.39756e-13)
(-1.80819e-09 0.00443268 1.42075e-13)
(-1.8132e-09 0.00444284 1.39855e-13)
(-1.81739e-09 0.00445212 7.72543e-14)
(-1.81559e-09 0.0044542 7.70895e-14)
(-1.8198e-09 0.00446347 1.39797e-13)
(-1.82477e-09 0.00447363 1.42014e-13)
(-1.82986e-09 0.00448379 1.39913e-13)
(-1.83395e-09 0.00449306 7.71728e-14)
(-1.83228e-09 0.00449514 7.71791e-14)
(-1.83633e-09 0.00450442 1.3968e-13)
(-1.8415e-09 0.00451458 1.42141e-13)
(-1.84635e-09 0.00452474 1.39745e-13)
(-1.85073e-09 0.00453401 7.73625e-14)
(-1.84871e-09 0.00453609 7.69426e-14)
(-1.85318e-09 0.00454537 1.39955e-13)
(-1.85783e-09 0.00455553 1.41796e-13)
(-1.86331e-09 0.00456569 1.40147e-13)
(-1.86693e-09 0.00457496 7.68665e-14)
(-1.86582e-09 0.00457704 7.75358e-14)
(-1.86919e-09 0.00458632 1.3926e-13)
(-1.87519e-09 0.00459648 1.43262e-13)
(-1.87912e-09 0.00460671 1.43323e-13)
(-1.88511e-09 0.00461687 1.3942e-13)
(-1.88848e-09 0.00462615 7.76773e-14)
(-1.88737e-09 0.00462823 7.6786e-14)
(-1.89099e-09 0.0046375 1.40094e-13)
(-1.89647e-09 0.00464766 1.41847e-13)
(-1.90113e-09 0.00465782 1.401e-13)
(-1.9056e-09 0.0046671 7.70805e-14)
(-1.90358e-09 0.00466918 7.72704e-14)
(-1.90795e-09 0.00467845 1.39685e-13)
(-1.91281e-09 0.00468861 1.42173e-13)
(-1.91798e-09 0.00469877 1.39819e-13)
(-1.92203e-09 0.00470804 7.73024e-14)
(-1.92036e-09 0.00471012 7.70817e-14)
(-1.92444e-09 0.0047194 1.39831e-13)
(-1.92953e-09 0.00472956 1.42042e-13)
(-1.93451e-09 0.00473972 1.39913e-13)
(-1.93872e-09 0.00474899 7.72172e-14)
(-1.93691e-09 0.00475107 7.71436e-14)
(-1.94111e-09 0.00476035 1.39774e-13)
(-1.94611e-09 0.00477051 1.42075e-13)
(-1.95116e-09 0.00478067 1.39877e-13)
(-1.9553e-09 0.00478994 7.7233e-14)
(-1.95356e-09 0.00479202 7.71292e-14)
(-1.9577e-09 0.0048013 1.39772e-13)
(-1.96276e-09 0.00481146 1.42072e-13)
(-1.96775e-09 0.00482162 1.3986e-13)
(-1.97195e-09 0.00483089 7.72478e-14)
(-1.97015e-09 0.00483297 7.70994e-14)
(-1.97436e-09 0.00484225 1.39802e-13)
(-1.97933e-09 0.00485241 1.4202e-13)
(-1.98442e-09 0.00486257 1.39911e-13)
(-1.98851e-09 0.00487184 7.71721e-14)
(-1.98684e-09 0.00487392 7.71848e-14)
(-1.99089e-09 0.00488319 1.39689e-13)
(-1.99606e-09 0.00489335 1.42145e-13)
(-2.00091e-09 0.00490351 1.39746e-13)
(-2.00529e-09 0.00491279 7.73605e-14)
(-2.00327e-09 0.00491487 7.69498e-14)
(-2.00774e-09 0.00492414 1.39964e-13)
(-2.01239e-09 0.0049343 1.41801e-13)
(-2.01787e-09 0.00494446 1.40148e-13)
(-2.02149e-09 0.00495374 7.6865e-14)
(-2.02038e-09 0.00495582 7.75431e-14)
(-2.02375e-09 0.00496509 1.39269e-13)
(-2.02975e-09 0.00497526 1.43268e-13)
(-2.03368e-09 0.00498548 1.43324e-13)
(-2.03967e-09 0.00499565 1.39417e-13)
(-2.04304e-09 0.00500492 7.76736e-14)
(-2.04193e-09 0.005007 7.67908e-14)
(-2.04555e-09 0.00501628 1.40099e-13)
(-2.05103e-09 0.00502644 1.41848e-13)
(-2.05569e-09 0.0050366 1.40098e-13)
(-2.06016e-09 0.00504587 7.7077e-14)
(-2.05814e-09 0.00504795 7.72757e-14)
(-2.06251e-09 0.00505723 1.3969e-13)
(-2.06737e-09 0.00506739 1.42175e-13)
(-2.07254e-09 0.00507755 1.39816e-13)
(-2.07659e-09 0.00508682 7.73005e-14)
(-2.07491e-09 0.0050889 7.70855e-14)
(-2.079e-09 0.00509817 1.39838e-13)
(-2.08409e-09 0.00510833 1.42043e-13)
(-2.08907e-09 0.00511849 1.39914e-13)
(-2.09328e-09 0.00512777 7.72112e-14)
(-2.09148e-09 0.00512985 7.7153e-14)
(-2.09567e-09 0.00513912 1.39775e-13)
(-2.10067e-09 0.00514928 1.42084e-13)
(-2.10572e-09 0.00515944 1.39869e-13)
(-2.10987e-09 0.00516872 7.72403e-14)
(-2.10811e-09 0.0051708 7.71227e-14)
(-2.11227e-09 0.00518007 1.39793e-13)
(-2.1173e-09 0.00519023 1.42058e-13)
(-2.12233e-09 0.00520039 1.39882e-13)
(-2.12649e-09 0.00520966 7.72187e-14)
(-2.12473e-09 0.00521174 7.7138e-14)
(-2.12889e-09 0.00522102 1.39769e-13)
(-2.13393e-09 0.00523118 1.42073e-13)
(-2.13894e-09 0.00524134 1.39852e-13)
(-2.14313e-09 0.00525061 7.72428e-14)
(-2.14133e-09 0.00525269 7.71026e-14)
(-2.14553e-09 0.00526197 1.39803e-13)
(-2.15051e-09 0.00527213 1.42019e-13)
(-2.1556e-09 0.00528229 1.39904e-13)
(-2.15969e-09 0.00529156 7.71691e-14)
(-2.15802e-09 0.00529364 7.71854e-14)
(-2.16207e-09 0.00530292 1.39694e-13)
(-2.16723e-09 0.00531308 1.4214e-13)
(-2.17209e-09 0.00532324 1.39744e-13)
(-2.17647e-09 0.00533251 7.73524e-14)
(-2.17445e-09 0.00533459 7.69565e-14)
(-2.17892e-09 0.00534387 1.39963e-13)
(-2.18357e-09 0.00535403 1.41803e-13)
(-2.18905e-09 0.00536419 1.4014e-13)
(-2.19267e-09 0.00537346 7.6864e-14)
(-2.19156e-09 0.00537554 7.75431e-14)
(-2.19493e-09 0.00538481 1.39276e-13)
(-2.20092e-09 0.00539498 1.43264e-13)
(-2.20486e-09 0.00540521 1.43323e-13)
(-2.21085e-09 0.00541537 1.39405e-13)
(-2.21422e-09 0.00542464 7.76705e-14)
(-2.21311e-09 0.00542672 7.67886e-14)
(-2.21673e-09 0.005436 1.40101e-13)
(-2.22221e-09 0.00544616 1.4184e-13)
(-2.22687e-09 0.00545632 1.40093e-13)
(-2.23134e-09 0.00546559 7.70674e-14)
(-2.22932e-09 0.00546767 7.72805e-14)
(-2.23369e-09 0.00547695 1.39686e-13)
(-2.23855e-09 0.00548711 1.42174e-13)
(-2.24372e-09 0.00549727 1.39806e-13)
(-2.24777e-09 0.00550654 7.72972e-14)
(-2.24609e-09 0.00550862 7.70849e-14)
(-2.25018e-09 0.0055179 1.3984e-13)
(-2.25527e-09 0.00552806 1.42037e-13)
(-2.26025e-09 0.00553822 1.39908e-13)
(-2.26446e-09 0.00554749 7.72052e-14)
(-2.26265e-09 0.00554957 7.71545e-14)
(-2.26685e-09 0.00555885 1.39777e-13)
(-2.27185e-09 0.00556901 1.42078e-13)
(-2.2769e-09 0.00557917 1.39866e-13)
(-2.28104e-09 0.00558844 7.72291e-14)
(-2.2793e-09 0.00559052 7.7133e-14)
(-2.28344e-09 0.00559979 1.39783e-13)
(-2.28849e-09 0.00560995 1.42069e-13)
(-2.29349e-09 0.00562011 1.39857e-13)
(-2.29769e-09 0.00562939 7.7237e-14)
(-2.29589e-09 0.00563147 7.71111e-14)
(-2.3001e-09 0.00564074 1.39806e-13)
(-2.30507e-09 0.0056509 1.42025e-13)
(-2.31016e-09 0.00566106 1.39902e-13)
(-2.31425e-09 0.00567034 7.71694e-14)
(-2.31258e-09 0.00567242 7.71894e-14)
(-2.31663e-09 0.00568169 1.39701e-13)
(-2.3218e-09 0.00569185 1.42143e-13)
(-2.32665e-09 0.00570201 1.39746e-13)
(-2.33103e-09 0.00571128 7.73508e-14)
(-2.329e-09 0.00571336 7.69622e-14)
(-2.33348e-09 0.00572264 1.39969e-13)
(-2.33813e-09 0.0057328 1.41807e-13)
(-2.34361e-09 0.00574296 1.40141e-13)
(-2.34723e-09 0.00575223 7.68633e-14)
(-2.34612e-09 0.00575431 7.75484e-14)
(-2.34949e-09 0.00576359 1.39283e-13)
(-2.35548e-09 0.00577375 1.43268e-13)
(-2.35942e-09 0.00578398 1.43324e-13)
(-2.36541e-09 0.00579415 1.39403e-13)
(-2.36878e-09 0.00580342 7.76682e-14)
(-2.36767e-09 0.0058055 7.6792e-14)
(-2.37129e-09 0.00581477 1.40105e-13)
(-2.37677e-09 0.00582493 1.41841e-13)
(-2.38143e-09 0.00583509 1.40092e-13)
(-2.3859e-09 0.00584437 7.70647e-14)
(-2.38388e-09 0.00584645 7.72849e-14)
(-2.38825e-09 0.00585572 1.39689e-13)
(-2.39311e-09 0.00586588 1.42177e-13)
(-2.39828e-09 0.00587604 1.39804e-13)
(-2.40233e-09 0.00588532 7.72965e-14)
(-2.40065e-09 0.0058874 7.70873e-14)
(-2.40474e-09 0.00589667 1.39847e-13)
(-2.40983e-09 0.00590683 1.42037e-13)
(-2.41481e-09 0.00591699 1.3991e-13)
(-2.41902e-09 0.00592626 7.71999e-14)
(-2.41722e-09 0.00592835 7.7163e-14)
(-2.42141e-09 0.00593762 1.39776e-13)
(-2.42641e-09 0.00594778 1.42087e-13)
(-2.43146e-09 0.00595794 1.39858e-13)
(-2.43561e-09 0.00596721 7.72375e-14)
(-2.43385e-09 0.00596929 7.71251e-14)
(-2.43801e-09 0.00597857 1.39803e-13)
(-2.44304e-09 0.00598873 1.42054e-13)
(-2.44807e-09 0.00599889 1.3988e-13)
(-2.45223e-09 0.00600816 7.72084e-14)
(-2.45047e-09 0.00601024 7.71487e-14)
(-2.45463e-09 0.00601952 1.39771e-13)
(-2.45967e-09 0.00602968 1.42077e-13)
(-2.46468e-09 0.00603984 1.39843e-13)
(-2.46887e-09 0.00604911 7.7241e-14)
(-2.46707e-09 0.00605119 7.71056e-14)
(-2.47127e-09 0.00606047 1.39814e-13)
(-2.47625e-09 0.00607063 1.42017e-13)
(-2.48134e-09 0.00608079 1.39904e-13)
(-2.48543e-09 0.00609006 7.71597e-14)
(-2.48376e-09 0.00609214 7.71968e-14)
(-2.48781e-09 0.00610141 1.39697e-13)
(-2.49297e-09 0.00611157 1.42147e-13)
(-2.49783e-09 0.00612173 1.39737e-13)
(-2.5022e-09 0.00613101 7.73516e-14)
(-2.50018e-09 0.00613309 7.696e-14)
(-2.50466e-09 0.00614236 1.39975e-13)
(-2.50931e-09 0.00615252 1.41802e-13)
(-2.51479e-09 0.00616268 1.40142e-13)
(-2.51841e-09 0.00617196 7.68554e-14)
(-2.5173e-09 0.00617404 7.75553e-14)
(-2.52067e-09 0.00618331 1.3928e-13)
(-2.52666e-09 0.00619348 1.43272e-13)
(-2.5306e-09 0.0062037 1.43315e-13)
(-2.53659e-09 0.00621387 1.39401e-13)
(-2.53996e-09 0.00622314 7.76586e-14)
(-2.53885e-09 0.00622522 7.67973e-14)
(-2.54247e-09 0.0062345 1.401e-13)
(-2.54795e-09 0.00624466 1.41842e-13)
(-2.55261e-09 0.00625482 1.40081e-13)
(-2.55708e-09 0.00626409 7.70644e-14)
(-2.55506e-09 0.00626617 7.72811e-14)
(-2.55943e-09 0.00627545 1.39693e-13)
(-2.56429e-09 0.00628561 1.42168e-13)
(-2.56946e-09 0.00629577 1.39803e-13)
(-2.57351e-09 0.00630504 7.72864e-14)
(-2.57183e-09 0.00630712 7.70942e-14)
(-2.57592e-09 0.00631639 1.3984e-13)
(-2.58101e-09 0.00632655 1.42041e-13)