/*--------------------------------*- C++ -*----------------------------------*\
| =========                 |                                                 |
| \\      /  F ield         | OpenFOAM: The Open Source CFD Toolbox           |
|  \\    /   O peration     | Version:  2206                                  |
|   \\  /    A nd           | Website:  www.openfoam.com                      |
|    \\/     M anipulation  |                                                 |
\*---------------------------------------------------------------------------*/
FoamFile
{
    version     2.0;
    format      ascii;
    arch        "LSB;label=32;scalar=64";
    class       volScalarField;
    location    "160";
    object      p;
}
// * * * * * * * * * * * * * * * * * * * * * * * * * * * * * * * * * * * * * //

dimensions      [0 2 -2 0 0 0 0];

internalField   nonuniform List<scalar> 
100000
(
1.0423e-08
1.74864e-07
3.16767e-07
3.1216e-07
3.06262e-07
2.92866e-07
3.33713e-07
3.52866e-07
3.76816e-07
3.9984e-07
4.26935e-07
4.46259e-07
4.77035e-07
5.01726e-07
5.34231e-07
5.63201e-07
5.9235e-07
6.25206e-07
6.58352e-07
6.95802e-07
7.32598e-07
7.67877e-07
8.07955e-07
8.48592e-07
8.92633e-07
9.38596e-07
9.86334e-07
1.03026e-06
1.08176e-06
1.13086e-06
1.1869e-06
1.24053e-06
1.29402e-06
1.35201e-06
1.41033e-06
1.47327e-06
1.53589e-06
1.5966e-06
1.66342e-06
1.72916e-06
1.80084e-06
1.87103e-06
1.9404e-06
2.01493e-06
2.08928e-06
2.16876e-06
2.24752e-06
2.32476e-06
2.40784e-06
2.49012e-06
2.57813e-06
2.66486e-06
2.75064e-06
2.84171e-06
2.93252e-06
3.02856e-06
3.12381e-06
3.21762e-06
3.31726e-06
3.41608e-06
3.52072e-06
3.62395e-06
3.72642e-06
3.83398e-06
3.94155e-06
4.05401e-06
4.16612e-06
4.27626e-06
4.39291e-06
4.5079e-06
4.62975e-06
4.74894e-06
4.8689e-06
4.9921e-06
5.11756e-06
5.24526e-06
5.37621e-06
5.50795e-06
5.63704e-06
5.7729e-06
5.90725e-06
6.04792e-06
6.18689e-06
6.32523e-06
6.46871e-06
6.612e-06
6.76055e-06
6.90824e-06
7.05464e-06
7.2067e-06
7.35817e-06
7.51521e-06
7.67116e-06
7.82598e-06
7.98635e-06
8.1462e-06
8.31159e-06
8.47588e-06
8.63909e-06
8.80778e-06
8.97604e-06
9.14973e-06
9.32246e-06
9.49393e-06
9.6711e-06
9.84759e-06
1.00298e-05
1.02107e-05
1.03908e-05
1.0576e-05
1.07612e-05
1.09514e-05
1.11411e-05
1.1329e-05
1.15233e-05
1.1716e-05
1.19155e-05
1.21124e-05
1.23101e-05
1.25111e-05
1.27142e-05
1.29197e-05
1.31283e-05
1.33378e-05
1.35447e-05
1.37583e-05
1.39704e-05
1.41888e-05
1.44055e-05
1.46217e-05
1.48429e-05
1.5064e-05
1.52903e-05
1.55158e-05
1.574e-05
1.59698e-05
1.61991e-05
1.64339e-05
1.66677e-05
1.69003e-05
1.71385e-05
1.73761e-05
1.76193e-05
1.78614e-05
1.81024e-05
1.8349e-05
1.8595e-05
1.88466e-05
1.9097e-05
1.93464e-05
1.96013e-05
1.98557e-05
2.01156e-05
2.03745e-05
2.06322e-05
2.08955e-05
2.11583e-05
2.14266e-05
2.16938e-05
2.196e-05
2.22315e-05
2.25028e-05
2.27793e-05
2.30552e-05
2.33293e-05
2.36098e-05
2.38887e-05
2.41744e-05
2.44576e-05
2.47414e-05
2.50286e-05
2.5318e-05
2.56097e-05
2.59045e-05
2.62003e-05
2.64933e-05
2.67932e-05
2.70915e-05
2.73962e-05
2.76991e-05
2.80014e-05
2.83089e-05
2.86162e-05
2.89287e-05
2.92405e-05
2.95508e-05
2.98669e-05
3.01824e-05
3.05035e-05
3.08234e-05
3.11423e-05
3.14667e-05
3.17906e-05
3.212e-05
3.24484e-05
3.27756e-05
3.31084e-05
3.34407e-05
3.37784e-05
3.41152e-05
3.44508e-05
3.4792e-05
3.51325e-05
3.54788e-05
3.58238e-05
3.61679e-05
3.65172e-05
3.68665e-05
3.72207e-05
3.75745e-05
3.79265e-05
3.82848e-05
3.86417e-05
3.90053e-05
3.93663e-05
3.9728e-05
4.0093e-05
4.04603e-05
4.08298e-05
4.12026e-05
4.15762e-05
4.19471e-05
4.23248e-05
4.2701e-05
4.30836e-05
4.34644e-05
4.38446e-05
4.42299e-05
4.46151e-05
4.50055e-05
4.53951e-05
4.57834e-05
4.61774e-05
4.65707e-05
4.69697e-05
4.73675e-05
4.77643e-05
4.81665e-05
4.85683e-05
4.89756e-05
4.93818e-05
4.97869e-05
5.01976e-05
5.06077e-05
5.10234e-05
5.1438e-05
5.18515e-05
5.22705e-05
5.2689e-05
5.3113e-05
5.35361e-05
5.39579e-05
5.43853e-05
5.48121e-05
5.52446e-05
5.56759e-05
5.61062e-05
5.65418e-05
5.69773e-05
5.74179e-05
5.78579e-05
5.82961e-05
5.87407e-05
5.91838e-05
5.96337e-05
6.00809e-05
6.05289e-05
6.09802e-05
6.14337e-05
6.18895e-05
6.23485e-05
6.28083e-05
6.32655e-05
6.37295e-05
6.41919e-05
6.46608e-05
6.51278e-05
6.55943e-05
6.60659e-05
6.65373e-05
6.7014e-05
6.74898e-05
6.79644e-05
6.84446e-05
6.89242e-05
6.94094e-05
6.98935e-05
7.03765e-05
7.0865e-05
7.1353e-05
7.18466e-05
7.23391e-05
7.28304e-05
7.33273e-05
7.38238e-05
7.43257e-05
7.48265e-05
7.53262e-05
7.58316e-05
7.63363e-05
7.68467e-05
7.73558e-05
7.7864e-05
7.83775e-05
7.88909e-05
7.94093e-05
7.99272e-05
8.04433e-05
8.09658e-05
8.14868e-05
8.20145e-05
8.25396e-05
8.30655e-05
8.35947e-05
8.41261e-05
8.46598e-05
8.51967e-05
8.57344e-05
8.62694e-05
8.68113e-05
8.73516e-05
8.78983e-05
8.84432e-05
8.89876e-05
8.95371e-05
9.00864e-05
9.0641e-05
9.11947e-05
9.17471e-05
9.23052e-05
9.28627e-05
9.34258e-05
9.39878e-05
9.45487e-05
9.51151e-05
9.5681e-05
9.62524e-05
9.68228e-05
9.7392e-05
9.79668e-05
9.85411e-05
9.91209e-05
9.96997e-05
0.000100277
0.00010086
0.000101443
0.000102031
0.000102618
0.000103204
0.000103796
0.000104387
0.000104984
0.000105579
0.000106173
0.000106773
0.000107373
0.000107978
0.000108582
0.000109184
0.000109793
0.0001104
0.000111014
0.000111625
0.000112238
0.000112853
0.000113471
0.000114091
0.000114714
0.000115338
0.000115959
0.000116587
0.000117214
0.000117847
0.000118478
0.000119109
0.000119744
0.00012038
0.000121021
0.000121661
0.000122299
0.000122944
0.000123587
0.000124237
0.000124885
0.000125532
0.000126185
0.000126837
0.000127495
0.000128151
0.000128807
0.000129468
0.000130128
0.000130794
0.000131459
0.000132123
0.000132793
0.000133462
0.000134136
0.000134809
0.000135482
0.000136159
0.000136837
0.00013752
0.000138202
0.000138882
0.000139568
0.000140254
0.000140945
0.000141635
0.000142325
0.000143018
0.000143714
0.000144411
0.000145112
0.000145814
0.000146514
0.00014722
0.000147924
0.000148635
0.000149344
0.000150052
0.000150766
0.00015148
0.000152198
0.000152916
0.000153633
0.000154355
0.000155077
0.000155804
0.00015653
0.000157255
0.000157985
0.000158716
0.000159451
0.000160186
0.000160919
0.000161658
0.000162396
0.00016314
0.000163883
0.000164625
0.000165372
0.000166119
0.000166871
0.000167623
0.000168373
0.000169129
0.000169884
0.000170644
0.000171404
0.000172163
0.000172927
0.00017369
0.000174459
0.000175227
0.000175994
0.000176767
0.000177538
0.000178316
0.000179092
0.000179868
0.000180648
0.00018143
0.000182214
0.000183001
0.000183789
0.000184575
0.000185367
0.000186158
0.000186955
0.00018775
0.000188545
0.000189345
0.000190144
0.000190949
0.000191753
0.000192556
0.000193365
0.000194173
0.000194986
0.000195799
0.00019661
0.000197427
0.000198243
0.000199065
0.000199886
0.000200705
0.00020153
0.000202355
0.000203185
0.000204014
0.000204842
0.000205676
0.000206509
0.000207348
0.000208185
0.000209022
0.000209863
0.000210705
0.000211552
0.000212398
0.000213242
0.000214093
0.000214942
0.000215799
0.000216652
0.000217506
0.000218364
0.000219223
0.000220085
0.00022095
0.000221816
0.00022268
0.00022355
0.000224419
0.000225294
0.000226167
0.000227039
0.000227917
0.000228795
0.000229678
0.00023056
0.00023144
0.000232327
0.000233213
0.000234104
0.000234994
0.000235883
0.000236778
0.000237672
0.000238572
0.000239471
0.000240368
0.000241271
0.000242174
0.000243082
0.000243989
0.000244895
0.000245806
0.000246717
0.000247634
0.000248549
0.000249463
0.000250383
0.000251303
0.000252228
0.000253151
0.000254074
0.000255002
0.00025593
0.000256863
0.000257795
0.000258726
0.000259663
0.000260599
0.000261541
0.000262481
0.000263421
0.000264365
0.000265311
0.000266259
0.00026721
0.000268163
0.000269112
0.000270069
0.000271024
0.000271985
0.000272944
0.000273903
0.000274867
0.000275831
0.0002768
0.000277768
0.000278735
0.000279708
0.00028068
0.000281658
0.000282634
0.00028361
0.000284591
0.000285571
0.000286557
0.000287542
0.000288526
0.000289515
0.000290504
0.000291498
0.000292492
0.000293484
0.000294482
0.000295479
0.000296482
0.000297483
0.000298484
0.00029949
0.000300496
0.000301506
0.000302517
0.000303525
0.00030454
0.000305554
0.000306574
0.000307591
0.00030861
0.000309631
0.000310655
0.000311681
0.000312711
0.000313741
0.000314768
0.000315803
0.000316835
0.000317874
0.000318912
0.000319949
0.000320991
0.000322032
0.000323079
0.000324125
0.00032517
0.000326221
0.000327271
0.000328326
0.000329381
0.000330434
0.000331493
0.000332551
0.000333615
0.000334678
0.00033574
0.000336807
0.000337874
0.000338946
0.000340017
0.000341087
0.000342163
0.000343238
0.000344318
0.000345398
0.000346476
0.00034756
0.000348644
0.000349733
0.000350821
0.000351908
0.000353
0.000354092
0.000355189
0.000356286
0.00035738
0.000358482
0.000359581
0.000360688
0.000361792
0.000362896
0.000364004
0.000365114
0.000366226
0.000367342
0.000368458
0.000369572
0.000370693
0.000371812
0.000372937
0.000374061
0.000375184
0.000376312
0.00037744
0.000378573
0.000379706
0.000380837
0.000381974
0.00038311
0.000384252
0.000385392
0.000386532
0.000387677
0.000388822
0.000389972
0.000391121
0.000392269
0.000393422
0.000394575
0.000395734
0.000396891
0.000398048
0.000399209
0.000400371
0.000401538
0.000402703
0.000403868
0.000405038
0.000406208
0.000407383
0.000408558
0.00040973
0.00041091
0.000412087
0.000413271
0.000414453
0.000415636
0.000416821
0.000418009
0.0004192
0.000420393
0.000421587
0.000422779
0.000423977
0.000425174
0.000426378
0.000427579
0.00042878
0.000429986
0.000431192
0.000432403
0.000433614
0.000434823
0.000436037
0.000437251
0.000438471
0.00043969
0.000440907
0.00044213
0.000443353
0.000444581
0.000445807
0.000447033
0.000448265
0.000449496
0.000450732
0.000451967
0.000453201
0.000454441
0.00045568
0.000456925
0.000458169
0.000459412
0.00046066
0.000461907
0.00046316
0.000464412
0.000465664
0.00046692
0.000468176
0.000469437
0.000470698
0.000471957
0.000473222
0.000474486
0.000475757
0.000477025
0.000478293
0.000479565
0.00048084
0.000482116
0.000483396
0.000484677
0.000485954
0.000487239
0.000488522
0.000489812
0.0004911
0.000492387
0.000493679
0.000494971
0.000496269
0.000497565
0.000498861
0.000500162
0.000501462
0.000502768
0.000504073
0.000505376
0.000506686
0.000507994
0.000509309
0.000510622
0.000511934
0.000513252
0.000514569
0.000515891
0.000517213
0.000518533
0.00051986
0.000521185
0.000522516
0.000523846
0.000525175
0.000526509
0.000527843
0.000529182
0.000530521
0.000531858
0.000533201
0.000534543
0.000535891
0.000537237
0.000538584
0.000539934
0.000541286
0.00054264
0.000543998
0.000545356
0.000546712
0.000548075
0.000549436
0.000550803
0.000552169
0.000553534
0.000554904
0.000556274
0.000557649
0.000559024
0.000560397
0.000561776
0.000563154
0.000564538
0.000565921
0.000567302
0.000568689
0.000570076
0.000571468
0.000572859
0.000574249
0.000575645
0.00057704
0.00057844
0.00057984
0.000581238
0.000582642
0.000584046
0.000585454
0.000586862
0.000588269
0.000589681
0.000591093
0.00059251
0.000593927
0.000595342
0.000596762
0.000598183
0.000599608
0.000601033
0.000602456
0.000603885
0.000605313
0.000606748
0.00060818
0.000609613
0.000611049
0.000612488
0.000613928
0.000615372
0.000616817
0.000618259
0.000619708
0.000621155
0.000622609
0.000624061
0.000625512
0.000626969
0.000628425
0.000629887
0.000631347
0.000632807
0.000634272
0.000635736
0.000637206
0.000638675
0.000640143
0.000641617
0.00064309
0.000644568
0.000646045
0.000647522
0.000649003
0.000650485
0.000651971
0.000653457
0.000654942
0.000656432
0.000657922
0.000659417
0.000660911
0.000662404
0.000663902
0.000665401
0.000666904
0.000668407
0.000669908
0.000671415
0.000672921
0.000674433
0.000675943
0.000677454
0.000678968
0.000680485
0.000682003
0.000683525
0.000685047
0.000686567
0.000688094
0.000689619
0.000691151
0.000692681
0.00069421
0.000695744
0.000697279
0.000698818
0.000700357
0.000701894
0.000703437
0.000704979
0.000706527
0.000708074
0.00070962
0.000711171
0.000712722
0.000714278
0.000715834
0.000717388
0.000718947
0.000720506
0.000722071
0.000723635
0.000725197
0.000726765
0.000728333
0.000729906
0.000731478
0.000733049
0.000734625
0.000736201
0.000737783
0.000739363
0.000740942
0.000742527
0.000744111
0.000745701
0.00074729
0.000748877
0.000750471
0.000752063
0.000753662
0.000755258
0.000756855
0.000758456
0.000760058
0.000761663
0.000763271
0.00076488
0.000766486
0.000768099
0.00076971
0.000771328
0.000772944
0.00077456
0.00077618
0.000777801
0.000779427
0.000781052
0.000782675
0.000784304
0.000785933
0.000787567
0.0007892
0.000790832
0.00079247
0.000794107
0.00079575
0.000797391
0.000799031
0.000800677
0.000802323
0.000803974
0.000805624
0.000807272
0.000808927
0.00081058
0.00081224
0.000813898
0.000815555
0.000817218
0.00081888
0.000820548
0.000822215
0.00082388
0.000825551
0.000827221
0.000828898
0.000830572
0.000832247
0.000833925
0.000835606
0.000837288
0.000838974
0.000840661
0.000842345
0.000844036
0.000845725
0.000847421
0.000849115
0.000850808
0.000852507
0.000854205
0.000855909
0.000857612
0.000859313
0.00086102
0.000862727
0.000864439
0.00086615
0.00086786
0.000869575
0.00087129
0.000873011
0.00087473
0.000876448
0.000878172
0.000879895
0.000881624
0.000883352
0.000885079
0.000886811
0.000888543
0.00089028
0.000892016
0.000893751
0.000895492
0.000897232
0.000898977
0.000900722
0.000902465
0.000904214
0.000905963
0.000907716
0.00090947
0.000911221
0.000912979
0.000914735
0.000916498
0.000918258
0.00092002
0.000921784
0.000923551
0.00092532
0.000927092
0.000928865
0.000930635
0.000932412
0.000934188
0.00093597
0.00093775
0.00093953
0.000941315
0.000943099
0.000944889
0.000946678
0.000948466
0.000950259
0.000952052
0.00095385
0.000955648
0.000957444
0.000959246
0.000961047
0.000962853
0.000964659
0.000966464
0.000968274
0.000970083
0.000971898
0.000973712
0.000975525
0.000977344
0.000979162
0.000980985
0.000982808
0.000984629
0.000986456
0.000988282
0.000990114
0.000991945
0.000993774
0.00099561
0.000997444
0.000999285
0.00100112
0.00100296
0.0010048
0.00100665
0.0010085
0.00101035
0.0010122
0.00101405
0.0010159
0.00101775
0.00101961
0.00102147
0.00102333
0.00102519
0.00102705
0.00102892
0.00103079
0.00103265
0.00103453
0.0010364
0.00103827
0.00104015
0.00104202
0.0010439
0.00104578
0.00104767
0.00104955
0.00105143
0.00105332
0.00105521
0.0010571
0.00105899
0.00106088
0.00106278
0.00106467
0.00106658
0.00106848
0.00107038
0.00107228
0.00107418
0.00107609
0.001078
0.00107991
0.00108182
0.00108374
0.00108565
0.00108757
0.00108949
0.00109141
0.00109333
0.00109526
0.00109718
0.00109911
0.00110103
0.00110297
0.0011049
0.00110684
0.00110877
0.00111071
0.00111265
0.00111459
0.00111653
0.00111848
0.00112042
0.00112237
0.00112432
0.00112627
0.00112823
0.00113018
0.00113214
0.00113409
0.00113606
0.00113802
0.00113998
0.00114194
0.00114391
0.00114588
0.00114785
0.00114982
0.00115179
0.00115377
0.00115575
0.00115772
0.0011597
0.00116168
0.00116367
0.00116565
0.00116764
0.00116963
0.00117162
0.00117361
0.0011756
0.0011776
0.00117959
0.00118159
0.00118359
0.00118559
0.0011876
0.0011896
0.00119161
0.00119362
0.00119563
0.00119764
0.00119966
0.00120167
0.00120369
0.0012057
0.00120773
0.00120975
0.00121177
0.0012138
0.00121583
0.00121786
0.00121989
0.00122192
0.00122395
0.00122599
0.00122803
0.00123007
0.00123211
0.00123415
0.00123619
0.00123824
0.00124029
0.00124234
0.00124439
0.00124644
0.0012485
0.00125055
0.00125261
0.00125467
0.00125673
0.00125879
0.00126086
0.00126292
0.00126499
0.00126706
0.00126913
0.00127121
0.00127328
0.00127536
0.00127743
0.00127951
0.0012816
0.00128368
0.00128576
0.00128785
0.00128994
0.00129203
0.00129412
0.00129621
0.0012983
0.0013004
0.0013025
0.0013046
0.0013067
0.00130881
0.00131091
0.00131302
0.00131513
0.00131724
0.00131935
0.00132146
0.00132358
0.0013257
0.00132781
0.00132994
0.00133206
0.00133418
0.00133631
0.00133843
0.00134056
0.00134269
0.00134483
0.00134696
0.0013491
0.00135123
0.00135337
0.00135551
0.00135766
0.0013598
0.00136195
0.00136409
0.00136624
0.00136839
0.00137054
0.0013727
0.00137485
0.00137701
0.00137917
0.00138133
0.00138349
0.00138566
0.00138783
0.00138999
0.00139216
0.00139433
0.0013965
0.00139868
0.00140086
0.00140304
0.00140521
0.0014074
0.00140958
0.00141177
0.00141395
0.00141614
0.00141833
0.00142052
0.00142272
0.00142491
0.0014271
0.0014293
0.0014315
0.00143371
0.00143591
0.00143811
0.00144032
0.00144253
0.00144474
0.00144695
0.00144916
0.00145138
0.0014536
0.00145582
0.00145804
0.00146026
0.00146248
0.00146471
0.00146694
0.00146916
0.00147139
0.00147362
0.00147586
0.0014781
0.00148033
0.00148257
0.00148481
0.00148705
0.0014893
0.00149154
0.00149379
0.00149604
0.00149829
0.00150054
0.00150279
0.00150505
0.0015073
0.00150956
0.00151182
0.00151409
0.00151635
0.00151862
0.00152089
0.00152315
0.00152543
0.0015277
0.00152997
0.00153225
0.00153453
0.00153681
0.00153909
0.00154137
0.00154366
0.00154594
0.00154823
0.00155052
0.00155281
0.00155511
0.0015574
0.0015597
0.001562
0.00156429
0.0015666
0.0015689
0.00157121
0.00157351
0.00157582
0.00157813
0.00158044
0.00158276
0.00158507
0.00158738
0.0015897
0.00159202
0.00159435
0.00159667
0.00159899
0.00160132
0.00160365
0.00160598
0.00160831
0.00161064
0.00161298
0.00161531
0.00161765
0.00162
0.00162234
0.00162468
0.00162703
0.00162937
0.00163173
0.00163408
0.00163643
0.00163878
0.00164114
0.0016435
0.00164586
0.00164821
0.00165058
0.00165294
0.00165531
0.00165768
0.00166004
0.00166242
0.00166479
0.00166716
0.00166954
0.00167191
0.0016743
0.00167668
0.00167906
0.00168144
0.00168383
0.00168622
0.00168861
0.001691
0.00169339
0.00169578
0.00169818
0.00170058
0.00170298
0.00170538
0.00170778
0.00171019
0.00171259
0.001715
0.00171741
0.00171982
0.00172223
0.00172465
0.00172707
0.00172948
0.0017319
0.00173432
0.00173675
0.00173917
0.0017416
0.00174403
0.00174646
0.00174889
0.00175132
0.00175376
0.0017562
0.00175863
0.00176108
0.00176352
0.00176596
0.00176841
0.00177085
0.0017733
0.00177575
0.00177821
0.00178066
0.00178311
0.00178557
0.00178803
0.00179049
0.00179296
0.00179542
0.00179788
0.00180035
0.00180282
0.00180529
0.00180776
0.00181024
0.00181271
0.00181519
0.00181767
0.00182015
0.00182263
0.00182511
0.0018276
0.00183009
0.00183258
0.00183507
0.00183756
0.00184006
0.00184255
0.00184505
0.00184755
0.00185005
0.00185255
0.00185506
0.00185756
0.00186007
0.00186258
0.00186509
0.00186761
0.00187012
0.00187264
0.00187516
0.00187767
0.0018802
0.00188272
0.00188524
0.00188777
0.0018903
0.00189283
0.00189536
0.0018979
0.00190043
0.00190297
0.00190551
0.00190805
0.00191059
0.00191313
0.00191568
0.00191823
0.00192077
0.00192332
0.00192587
0.00192843
0.00193098
0.00193354
0.0019361
0.00193866
0.00194122
0.00194379
0.00194635
0.00194892
0.00195148
0.00195405
0.00195663
0.0019592
0.00196177
0.00196435
0.00196693
0.00196951
0.0019721
0.00197468
0.00197726
0.00197985
0.00198244
0.00198503
0.00198763
0.00199022
0.00199282
0.00199541
0.00199801
0.00200062
0.00200322
0.00200582
0.00200843
0.00201104
0.00201365
0.00201626
0.00201887
0.00202148
0.0020241
0.00202672
0.00202934
0.00203196
0.00203458
0.00203721
0.00203984
0.00204246
0.00204509
0.00204772
0.00205036
0.00205299
0.00205563
0.00205827
0.0020609
0.00206355
0.00206619
0.00206883
0.00207148
0.00207413
0.00207678
0.00207943
0.00208208
0.00208474
0.00208739
0.00209005
0.00209271
0.00209537
0.00209804
0.0021007
0.00210337
0.00210604
0.00210871
0.00211138
0.00211405
0.00211673
0.00211941
0.00212209
0.00212476
0.00212745
0.00213013
0.00213282
0.00213551
0.00213819
0.00214089
0.00214358
0.00214627
0.00214897
0.00215167
0.00215437
0.00215707
0.00215977
0.00216248
0.00216518
0.00216789
0.0021706
0.00217331
0.00217602
0.00217873
0.00218145
0.00218417
0.00218689
0.00218961
0.00219233
0.00219506
0.00219778
0.00220051
0.00220324
0.00220597
0.0022087
0.00221144
0.00221417
0.00221691
0.00221965
0.00222239
0.00222513
0.00222788
0.00223063
0.00223337
0.00223612
0.00223887
0.00224163
0.00224438
0.00224714
0.0022499
0.00225266
0.00225542
0.00225819
0.00226095
0.00226372
0.00226649
0.00226926
0.00227203
0.0022748
0.00227758
0.00228035
0.00228313
0.00228592
0.0022887
0.00229148
0.00229427
0.00229705
0.00229984
0.00230263
0.00230542
0.00230822
0.00231101
0.00231381
0.00231661
0.00231941
0.00232221
0.00232502
0.00232782
0.00233063
0.00233344
0.00233625
0.00233906
0.00234188
0.00234469
0.00234751
0.00235033
0.00235315
0.00235597
0.0023588
0.00236162
0.00236445
0.00236727
0.00237011
0.00237294
0.00237577
0.00237861
0.00238145
0.00238429
0.00238713
0.00238997
0.00239282
0.00239566
0.00239851
0.00240136
0.00240422
0.00240707
0.00240992
0.00241278
0.00241564
0.0024185
0.00242136
0.00242422
0.00242709
0.00242996
0.00243282
0.00243569
0.00243856
0.00244144
0.00244431
0.00244719
0.00245007
0.00245295
0.00245583
0.00245872
0.0024616
0.00246448
0.00246737
0.00247026
0.00247316
0.00247605
0.00247894
0.00248184
0.00248474
0.00248764
0.00249054
0.00249344
0.00249635
0.00249926
0.00250217
0.00250508
0.00250799
0.0025109
0.00251382
0.00251674
0.00251966
0.00252258
0.0025255
0.00252842
0.00253135
0.00253428
0.00253721
0.00254014
0.00254307
0.00254601
0.00254894
0.00255188
0.00255482
0.00255776
0.0025607
0.00256365
0.0025666
0.00256954
0.00257249
0.00257544
0.0025784
0.00258135
0.00258431
0.00258727
0.00259023
0.00259319
0.00259615
0.00259911
0.00260208
0.00260505
0.00260802
0.00261099
0.00261396
0.00261694
0.00261991
0.0026229
0.00262588
0.00262885
0.00263184
0.00263482
0.00263781
0.0026408
0.00264379
0.00264678
0.00264977
0.00265277
0.00265577
0.00265876
0.00266176
0.00266476
0.00266777
0.00267078
0.00267378
0.00267679
0.0026798
0.00268281
0.00268583
0.00268885
0.00269186
0.00269488
0.0026979
0.00270093
0.00270395
0.00270697
0.00271
0.00271303
0.00271606
0.0027191
0.00272213
0.00272516
0.0027282
0.00273124
0.00273428
0.00273732
0.00274037
0.00274341
0.00274646
0.00274951
0.00275256
0.00275562
0.00275867
0.00276173
0.00276479
0.00276784
0.0027709
0.00277397
0.00277703
0.0027801
0.00278316
0.00278623
0.0027893
0.00279238
0.00279545
0.00279853
0.00280161
0.00280469
0.00280777
0.00281085
0.00281394
0.00281702
0.00282011
0.0028232
0.0028263
0.00282939
0.00283248
0.00283558
0.00283868
0.00284178
0.00284488
0.00284799
0.00285109
0.0028542
0.00285731
0.00286042
0.00286353
0.00286664
0.00286976
0.00287288
0.002876
0.00287912
0.00288224
0.00288536
0.00288849
0.00289162
0.00289474
0.00289787
0.00290101
0.00290414
0.00290728
0.00291041
0.00291355
0.00291669
0.00291984
0.00292298
0.00292612
0.00292927
0.00293242
0.00293557
0.00293873
0.00294188
0.00294503
0.00294819
0.00295135
0.00295451
0.00295767
0.00296084
0.002964
0.00296717
0.00297034
0.00297352
0.00297668
0.00297986
0.00298304
0.00298622
0.0029894
0.00299258
0.00299576
0.00299895
0.00300213
0.00300532
0.00300851
0.0030117
0.0030149
0.00301809
0.00302129
0.00302449
0.00302769
0.00303089
0.00303409
0.0030373
0.0030405
0.00304371
0.00304692
0.00305014
0.00305335
0.00305656
0.00305978
0.003063
0.00306622
0.00306944
0.00307266
0.00307589
0.00307911
0.00308235
0.00308558
0.0030888
0.00309204
0.00309527
0.00309851
0.00310175
0.00310499
0.00310823
0.00311148
0.00311472
0.00311797
0.00312122
0.00312447
0.00312772
0.00313098
0.00313424
0.00313749
0.00314075
0.00314401
0.00314728
0.00315054
0.00315381
0.00315707
0.00316034
0.00316361
0.00316689
0.00317016
0.00317344
0.00317672
0.00318
0.00318328
0.00318656
0.00318984
0.00319313
0.00319642
0.00319971
0.003203
0.00320629
0.00320959
0.00321288
0.00321619
0.00321948
0.00322278
0.00322609
0.00322939
0.0032327
0.00323601
0.00323932
0.00324263
0.00324594
0.00324926
0.00325257
0.00325589
0.00325921
0.00326253
0.00326586
0.00326918
0.00327251
0.00327583
0.00327916
0.0032825
0.00328583
0.00328917
0.0032925
0.00329584
0.00329918
0.00330253
0.00330587
0.00330922
0.00331256
0.00331591
0.00331927
0.00332262
0.00332597
0.00332933
0.00333268
0.00333605
0.00333941
0.00334277
0.00334613
0.0033495
0.00335287
0.00335624
0.0033596
0.00336298
0.00336635
0.00336973
0.00337311
0.00337648
0.00337987
0.00338325
0.00338663
0.00339002
0.00339341
0.0033968
0.00340019
0.00340358
0.00340698
0.00341037
0.00341377
0.00341717
0.00342057
0.00342397
0.00342737
0.00343078
0.00343419
0.0034376
0.00344101
0.00344443
0.00344784
0.00345126
0.00345467
0.0034581
0.00346152
0.00346494
0.00346837
0.00347179
0.00347522
0.00347866
0.00348208
0.00348552
0.00348895
0.00349239
0.00349583
0.00349927
0.00350271
0.00350616
0.0035096
0.00351305
0.0035165
0.00351995
0.0035234
0.00352686
0.00353031
0.00353377
0.00353723
0.00354069
0.00354415
0.00354761
0.00355108
0.00355455
0.00355801
0.00356149
0.00356496
0.00356843
0.00357191
0.00357538
0.00357886
0.00358235
0.00358582
0.00358931
0.00359279
0.00359628
0.00359977
0.00360326
0.00360675
0.00361025
0.00361375
0.00361725
0.00362075
0.00362424
0.00362775
0.00363125
0.00363476
0.00363827
0.00364178
0.00364529
0.0036488
0.00365232
0.00365584
0.00365935
0.00366287
0.00366639
0.00366992
0.00367344
0.00367697
0.0036805
0.00368403
0.00368756
0.0036911
0.00369463
0.00369817
0.0037017
0.00370525
0.00370879
0.00371233
0.00371587
0.00371942
0.00372297
0.00372652
0.00373007
0.00373362
0.00373718
0.00374074
0.0037443
0.00374785
0.00375142
0.00375498
0.00375855
0.00376211
0.00376568
0.00376925
0.00377282
0.0037764
0.00377998
0.00378355
0.00378713
0.00379071
0.00379429
0.00379788
0.00380147
0.00380505
0.00380864
0.00381223
0.00381583
0.00381942
0.00382302
0.00382662
0.00383021
0.00383382
0.00383742
0.00384102
0.00384463
0.00384824
0.00385185
0.00385546
0.00385907
0.00386269
0.0038663
0.00386992
0.00387354
0.00387716
0.00388079
0.00388441
0.00388804
0.00389167
0.00389529
0.00389893
0.00390256
0.0039062
0.00390983
0.00391347
0.00391711
0.00392075
0.00392439
0.00392804
0.00393168
0.00393533
0.00393898
0.00394263
0.00394629
0.00394994
0.0039536
0.00395726
0.00396092
0.00396458
0.00396825
0.00397191
0.00397558
0.00397924
0.00398292
0.00398659
0.00399026
0.00399394
0.00399761
0.0040013
0.00400498
0.00400866
0.00401234
0.00401603
0.00401972
0.00402341
0.00402709
0.00403079
0.00403448
0.00403818
0.00404188
0.00404557
0.00404928
0.00405298
0.00405668
0.00406039
0.00406409
0.00406781
0.00407152
0.00407523
0.00407894
0.00408266
0.00408638
0.0040901
0.00409382
0.00409754
0.00410126
0.00410499
0.00410872
0.00411245
0.00411618
0.00411991
0.00412364
0.00412738
0.00413112
0.00413486
0.0041386
0.00414234
0.00414609
0.00414984
0.00415359
0.00415734
0.00416109
0.00416484
0.0041686
0.00417236
0.00417612
0.00417987
0.00418364
0.0041874
0.00419117
0.00419493
0.0041987
0.00420247
0.00420624
0.00421002
0.00421379
0.00421757
0.00422135
0.00422513
0.00422891
0.0042327
0.00423648
0.00424027
0.00424406
0.00424785
0.00425164
0.00425543
0.00425923
0.00426302
0.00426683
0.00427063
0.00427443
0.00427823
0.00428204
0.00428585
0.00428965
0.00429346
0.00429728
0.00430109
0.00430491
0.00430872
0.00431254
0.00431636
0.00432018
0.00432401
0.00432784
0.00433167
0.00433549
0.00433933
0.00434316
0.004347
0.00435083
0.00435467
0.00435851
0.00436235
0.0043662
0.00437004
0.00437388
0.00437773
0.00438158
0.00438544
0.00438929
0.00439314
0.004397
0.00440086
0.00440472
0.00440858
0.00441244
0.00441631
0.00442017
0.00442405
0.00442792
0.00443178
0.00443566
0.00443953
0.00444341
0.00444729
0.00445117
0.00445505
0.00445893
0.00446282
0.00446671
0.00447059
0.00447449
0.00447838
0.00448227
0.00448617
0.00449006
0.00449396
0.00449786
0.00450176
0.00450567
0.00450958
0.00451348
0.00451739
0.0045213
0.00452522
0.00452913
0.00453305
0.00453696
0.00454088
0.00454481
0.00454873
0.00455265
0.00455658
0.00456051
0.00456444
0.00456837
0.0045723
0.00457623
0.00458017
0.00458411
0.00458805
0.00459199
0.00459593
0.00459988
0.00460382
0.00460777
0.00461172
0.00461567
0.00461962
0.00462358
0.00462754
0.00463149
0.00463545
0.00463941
0.00464338
0.00464734
0.00465131
0.00465528
0.00465925
0.00466322
0.00466719
0.00467116
0.00467514
0.00467912
0.0046831
0.00468708
0.00469106
0.00469505
0.00469904
0.00470303
0.00470702
0.00471101
0.004715
0.004719
0.00472299
0.004727
0.004731
0.004735
0.004739
0.00474301
0.00474702
0.00475103
0.00475503
0.00475905
0.00476306
0.00476708
0.0047711
0.00477511
0.00477913
0.00478316
0.00478718
0.00479121
0.00479523
0.00479926
0.00480329
0.00480733
0.00481136
0.0048154
0.00481943
0.00482347
0.00482752
0.00483156
0.0048356
0.00483965
0.00484369
0.00484775
0.0048518
0.00485585
0.0048599
0.00486396
0.00486802
0.00487208
0.00487614
0.0048802
0.00488426
0.00488833
0.0048924
0.00489647
0.00490054
0.00490462
0.00490869
0.00491277
0.00491685
0.00492093
0.00492501
0.00492909
0.00493318
0.00493727
0.00494135
0.00494544
0.00494953
0.00495363
0.00495773
0.00496182
0.00496592
0.00497002
0.00497412
0.00497823
0.00498233
0.00498644
0.00499055
0.00499466
0.00499877
0.00500288
0.005007
0.00501111
0.00501524
0.00501936
0.00502348
0.0050276
0.00503173
0.00503586
0.00503998
0.00504411
0.00504825
0.00505238
0.00505652
0.00506065
0.00506479
0.00506893
0.00507307
0.00507722
0.00508136
0.00508551
0.00508966
0.00509381
0.00509796
0.00510212
0.00510628
0.00511043
0.00511459
0.00511875
0.00512292
0.00512708
0.00513125
0.00513542
0.00513959
0.00514376
0.00514793
0.00515211
0.00515628
0.00516046
0.00516464
0.00516883
0.00517301
0.00517719
0.00518138
0.00518557
0.00518976
0.00519395
0.00519814
0.00520234
0.00520653
0.00521073
0.00521493
0.00521913
0.00522334
0.00522754
0.00523175
0.00523596
0.00524017
0.00524438
0.00524859
0.00525281
0.00525702
0.00526124
0.00526546
0.00526969
0.00527391
0.00527813
0.00528236
0.00528659
0.00529082
0.00529505
0.00529929
0.00530352
0.00530776
0.005312
0.00531624
0.00532049
0.00532473
0.00532897
0.00533322
0.00533747
0.00534172
0.00534597
0.00535023
0.00535449
0.00535875
0.00536301
0.00536726
0.00537153
0.00537579
0.00538006
0.00538433
0.00538859
0.00539287
0.00539714
0.00540142
0.00540569
0.00540997
0.00541425
0.00541853
0.00542281
0.0054271
0.00543138
0.00543567
0.00543996
0.00544425
0.00544855
0.00545284
0.00545714
0.00546143
0.00546574
0.00547004
0.00547434
0.00547864
0.00548295
0.00548726
0.00549157
0.00549588
0.00550019
0.00550451
0.00550883
0.00551315
0.00551747
0.00552179
0.00552611
0.00553044
0.00553477
0.0055391
0.00554343
0.00554776
0.00555209
0.00555643
0.00556077
0.0055651
0.00556945
0.00557379
0.00557813
0.00558248
0.00558683
0.00559118
0.00559552
0.00559988
0.00560423