/*--------------------------------*- C++ -*----------------------------------*\
| =========                 |                                                 |
| \\      /  F ield         | OpenFOAM: The Open Source CFD Toolbox           |
|  \\    /   O peration     | Version:  2206                                  |
|   \\  /    A nd           | Website:  www.openfoam.com                      |
|    \\/     M anipulation  |                                                 |
\*---------------------------------------------------------------------------*/
FoamFile
{
    version     2.0;
    format      ascii;
    arch        "LSB;label=32;scalar=64";
    class       volVectorField;
    location    "160";
    object      U;
}
// * * * * * * * * * * * * * * * * * * * * * * * * * * * * * * * * * * * * * //

dimensions      [0 1 -1 0 0 0 0];

internalField   nonuniform List<vector> 
100000
(
(1.00441e-11 5.85682e-06 -7.48993e-12)
(-1.13573e-12 1.04437e-05 -2.3096e-13)
(-9.81547e-12 1.91687e-05 8.28349e-14)
(-1.98182e-11 2.85377e-05 4.55023e-14)
(-1.73952e-11 3.70977e-05 1.64699e-13)
(-1.34566e-11 3.89836e-05 8.69582e-14)
(-1.95477e-11 4.77148e-05 1.34902e-13)
(-2.40804e-11 5.71775e-05 1.2326e-13)
(-2.87642e-11 6.66297e-05 1.40965e-13)
(-3.23223e-11 7.52569e-05 6.87031e-14)
(-3.10097e-11 7.70898e-05 7.45717e-14)
(-3.43924e-11 8.58016e-05 1.27148e-13)
(-3.95762e-11 9.52677e-05 1.34746e-13)
(-4.40664e-11 0.000104726 1.31143e-13)
(-4.82578e-11 0.000113372 7.60988e-14)
(-4.62916e-11 0.000115195 6.83507e-14)
(-5.05649e-11 0.000123897 1.31507e-13)
(-5.49471e-11 0.000133364 1.31833e-13)
(-6.01628e-11 0.000142825 1.34619e-13)
(-6.36094e-11 0.000151479 7.22524e-14)
(-6.25278e-11 0.000153299 7.20064e-14)
(-6.57664e-11 0.000161996 1.29204e-13)
(-7.13818e-11 0.000171465 1.35572e-13)
(-7.51861e-11 0.000180984 1.3557e-13)
(-8.08106e-11 0.000190449 1.34432e-13)
(-8.41142e-11 0.000199109 7.39616e-14)
(-8.29145e-11 0.000200927 7.21097e-14)
(-8.64446e-11 0.00020962 1.31806e-13)
(-9.15708e-11 0.000219086 1.35249e-13)
(-9.60703e-11 0.000228549 1.33657e-13)
(-1.00277e-10 0.000237212 7.42127e-14)
(-9.83524e-11 0.00023903 7.17275e-14)
(-1.02475e-10 0.00024772 1.3238e-13)
(-1.0712e-10 0.000257186 1.34594e-13)
(-1.12005e-10 0.000266649 1.33952e-13)
(-1.15897e-10 0.000275315 7.35096e-14)
(-1.14231e-10 0.000277132 7.23419e-14)
(-1.1815e-10 0.00028582 1.31893e-13)
(-1.22957e-10 0.000295286 1.34994e-13)
(-1.2771e-10 0.00030475 1.33294e-13)
(-1.31705e-10 0.000313417 7.383e-14)
(-1.2996e-10 0.000315233 7.1972e-14)
(-1.33943e-10 0.000323921 1.32324e-13)
(-1.387e-10 0.000333387 1.34518e-13)
(-1.43489e-10 0.00034285 1.33532e-13)
(-1.47454e-10 0.000351518 7.33539e-14)
(-1.45734e-10 0.000353335 7.23732e-14)
(-1.49702e-10 0.000362021 1.31995e-13)
(-1.54468e-10 0.000371487 1.34775e-13)
(-1.59251e-10 0.000380951 1.3311e-13)
(-1.63215e-10 0.00038962 7.3552e-14)
(-1.61503e-10 0.000391436 7.21395e-14)
(-1.65461e-10 0.000400122 1.32255e-13)
(-1.70241e-10 0.000409587 1.34481e-13)
(-1.75003e-10 0.000419051 1.33239e-13)
(-1.78994e-10 0.000427721 7.3264e-14)
(-1.77248e-10 0.000429537 7.23679e-14)
(-1.81251e-10 0.000438222 1.32073e-13)
(-1.85975e-10 0.000447688 1.34602e-13)
(-1.90805e-10 0.000457152 1.33008e-13)
(-1.94709e-10 0.000465823 7.33279e-14)
(-1.93073e-10 0.000467639 7.22868e-14)
(-1.96941e-10 0.000476323 1.32154e-13)
(-2.0183e-10 0.000485789 1.34511e-13)
(-2.06457e-10 0.000495253 1.32958e-13)
(-2.1061e-10 0.000503924 7.32889e-14)
(-2.08669e-10 0.00050574 7.22484e-14)
(-2.12912e-10 0.000514424 1.32261e-13)
(-2.17342e-10 0.000523889 1.3431e-13)
(-2.22528e-10 0.000533353 1.33134e-13)
(-2.25998e-10 0.000542025 7.292e-14)
(-2.24891e-10 0.000543841 7.26889e-14)
(-2.28121e-10 0.000552525 1.31741e-13)
(-2.33785e-10 0.000561993 1.35529e-13)
(-2.37539e-10 0.000571512 1.36094e-13)
(-2.43208e-10 0.000580979 1.32767e-13)
(-2.46452e-10 0.000589652 7.38408e-14)
(-2.4532e-10 0.000591467 7.22112e-14)
(-2.48802e-10 0.00060015 1.32884e-13)
(-2.53972e-10 0.000609616 1.34558e-13)
(-2.58426e-10 0.00061908 1.33455e-13)
(-2.62662e-10 0.000627753 7.31313e-14)
(-2.60719e-10 0.000629568 7.27608e-14)
(-2.64864e-10 0.000638251 1.32392e-13)
(-2.69492e-10 0.000647717 1.34905e-13)
(-2.74387e-10 0.000657181 1.33056e-13)
(-2.78263e-10 0.000665854 7.33716e-14)
(-2.76614e-10 0.00066767 7.25143e-14)
(-2.80522e-10 0.000676352 1.32578e-13)
(-2.85343e-10 0.000685817 1.34681e-13)
(-2.9008e-10 0.000695282 1.33155e-13)
(-2.94083e-10 0.000703955 7.31936e-14)
(-2.92332e-10 0.000705771 7.26332e-14)
(-2.96325e-10 0.000714453 1.32449e-13)
(-3.01075e-10 0.000723918 1.34738e-13)
(-3.0587e-10 0.000733382 1.33019e-13)
(-3.09823e-10 0.000742056 7.32322e-14)
(-3.08117e-10 0.000743872 7.25649e-14)
(-3.12069e-10 0.000752553 1.32487e-13)
(-3.16858e-10 0.000762019 1.34653e-13)
(-3.21613e-10 0.000771483 1.33015e-13)
(-3.25607e-10 0.000780157 7.31643e-14)
(-3.23857e-10 0.000781973 7.25899e-14)
(-3.27861e-10 0.000790654 1.32452e-13)
(-3.32588e-10 0.00080012 1.3463e-13)
(-3.37417e-10 0.000809584 1.32975e-13)
(-3.41321e-10 0.000818258 7.31176e-14)
(-3.39681e-10 0.000820074 7.26208e-14)
(-3.43552e-10 0.000828755 1.32384e-13)
(-3.48442e-10 0.00083822 1.34675e-13)
(-3.53069e-10 0.000847685 1.32836e-13)
(-3.57221e-10 0.000856359 7.32231e-14)
(-3.55279e-10 0.000858175 7.24481e-14)
(-3.5952e-10 0.000866856 1.32586e-13)
(-3.63956e-10 0.000876321 1.34377e-13)
(-3.69138e-10 0.000885786 1.33139e-13)
(-3.72611e-10 0.00089446 7.27787e-14)
(-3.71497e-10 0.000896276 7.29658e-14)
(-3.74731e-10 0.000904957 1.3196e-13)
(-3.80395e-10 0.000914425 1.3569e-13)
(-3.8415e-10 0.000923944 1.36004e-13)
(-3.89818e-10 0.000933412 1.32625e-13)
(-3.9306e-10 0.000942086 7.36401e-14)
(-3.91931e-10 0.000943902 7.23732e-14)
(-3.95411e-10 0.000952583 1.32946e-13)
(-4.00584e-10 0.000962048 1.34559e-13)
(-4.05034e-10 0.000971513 1.33277e-13)
(-4.09271e-10 0.000980187 7.30194e-14)
(-4.07328e-10 0.000982003 7.28566e-14)
(-4.11475e-10 0.000990684 1.32517e-13)
(-4.16103e-10 0.00100015 1.34867e-13)
(-4.20996e-10 0.00100961 1.32958e-13)
(-4.24872e-10 0.00101829 7.32296e-14)
(-4.23224e-10 0.0010201 7.26537e-14)
(-4.27132e-10 0.00102878 1.32661e-13)
(-4.31953e-10 0.00103825 1.34702e-13)
(-4.3669e-10 0.00104771 1.3304e-13)
(-4.40691e-10 0.00105639 7.31084e-14)
(-4.38943e-10 0.0010582 7.27314e-14)
(-4.42931e-10 0.00106689 1.3257e-13)
(-4.47688e-10 0.00107635 1.34738e-13)
(-4.52475e-10 0.00108582 1.32953e-13)
(-4.56437e-10 0.00109449 7.31354e-14)
(-4.5472e-10 0.00109631 7.26822e-14)
(-4.58686e-10 0.00110499 1.32592e-13)
(-4.63458e-10 0.00111445 1.34677e-13)
(-4.68235e-10 0.00112392 1.32957e-13)
(-4.72201e-10 0.00113259 7.3082e-14)
(-4.70485e-10 0.00113441 7.27101e-14)
(-4.74445e-10 0.00114309 1.32542e-13)
(-4.79228e-10 0.00115255 1.3469e-13)
(-4.83988e-10 0.00116202 1.32892e-13)
(-4.87978e-10 0.00117069 7.31042e-14)
(-4.86231e-10 0.00117251 7.26599e-14)
(-4.90232e-10 0.00118119 1.32577e-13)
(-4.94962e-10 0.00119065 1.3461e-13)
(-4.99788e-10 0.00120012 1.32932e-13)
(-5.03694e-10 0.00120879 7.30088e-14)
(-5.02052e-10 0.00121061 7.27468e-14)
(-5.05924e-10 0.00121929 1.32454e-13)
(-5.10814e-10 0.00122875 1.3472e-13)
(-5.15442e-10 0.00123822 1.32753e-13)
(-5.19592e-10 0.00124689 7.31777e-14)
(-5.17651e-10 0.00124871 7.252e-14)
(-5.21891e-10 0.00125739 1.32708e-13)
(-5.26329e-10 0.00126685 1.34379e-13)
(-5.31509e-10 0.00127632 1.33118e-13)
(-5.34984e-10 0.00128499 7.26945e-14)
(-5.33868e-10 0.00128681 7.30828e-14)
(-5.37103e-10 0.00129549 1.32035e-13)
(-5.42767e-10 0.00130496 1.35744e-13)
(-5.46522e-10 0.00131448 1.35933e-13)
(-5.52189e-10 0.00132395 1.32535e-13)
(-5.5543e-10 0.00133262 7.35241e-14)
(-5.54304e-10 0.00133444 7.24418e-14)
(-5.57783e-10 0.00134312 1.3295e-13)
(-5.62956e-10 0.00135258 1.34539e-13)
(-5.67405e-10 0.00136205 1.33161e-13)
(-5.71642e-10 0.00137072 7.29528e-14)
(-5.697e-10 0.00137254 7.28877e-14)
(-5.73847e-10 0.00138122 1.32563e-13)
(-5.78475e-10 0.00139068 1.34821e-13)
(-5.83368e-10 0.00140015 1.3289e-13)
(-5.87242e-10 0.00140882 7.31375e-14)
(-5.85596e-10 0.00141064 7.27194e-14)
(-5.89503e-10 0.00141932 1.32678e-13)
(-5.94326e-10 0.00142878 1.34697e-13)
(-5.9906e-10 0.00143825 1.3295e-13)
(-6.03063e-10 0.00144692 7.30577e-14)
(-6.01312e-10 0.00144874 7.27637e-14)
(-6.05305e-10 0.00145742 1.32625e-13)
(-6.10057e-10 0.00146688 1.34706e-13)
(-6.1485e-10 0.00147635 1.32909e-13)
(-6.18803e-10 0.00148502 7.30547e-14)
(-6.17097e-10 0.00148684 7.2754e-14)
(-6.21049e-10 0.00149552 1.32609e-13)
(-6.25839e-10 0.00150499 1.34697e-13)
(-6.30593e-10 0.00151445 1.32874e-13)
(-6.34587e-10 0.00152313 7.30623e-14)
(-6.32837e-10 0.00152494 7.27207e-14)
(-6.3684e-10 0.00153362 1.32631e-13)
(-6.4157e-10 0.00154309 1.34635e-13)
(-6.46396e-10 0.00155255 1.32909e-13)
(-6.50302e-10 0.00156123 7.29826e-14)
(-6.4866e-10 0.00156304 7.27974e-14)
(-6.52531e-10 0.00157172 1.32519e-13)
(-6.57422e-10 0.00158119 1.3474e-13)
(-6.6205e-10 0.00159065 1.32743e-13)
(-6.662e-10 0.00159933 7.31483e-14)
(-6.64258e-10 0.00160114 7.25772e-14)
(-6.68498e-10 0.00160982 1.32768e-13)
(-6.72937e-10 0.00161929 1.34409e-13)
(-6.78117e-10 0.00162875 1.33108e-13)
(-6.81592e-10 0.00163743 7.26743e-14)
(-6.80474e-10 0.00163924 7.31349e-14)
(-6.8371e-10 0.00164792 1.321e-13)
(-6.89375e-10 0.00165739 1.35773e-13)
(-6.9313e-10 0.00166691 1.35924e-13)
(-6.98797e-10 0.00167638 1.32491e-13)
(-7.02037e-10 0.00168505 7.34856e-14)
(-7.00911e-10 0.00168687 7.24718e-14)
(-7.0439e-10 0.00169555 1.32978e-13)
(-7.09564e-10 0.00170501 1.34532e-13)
(-7.14012e-10 0.00171448 1.33127e-13)
(-7.1825e-10 0.00172316 7.29146e-14)
(-7.16307e-10 0.00172497 7.29224e-14)
(-7.20454e-10 0.00173365 1.32589e-13)
(-7.25082e-10 0.00174312 1.34822e-13)
(-7.29975e-10 0.00175258 1.32857e-13)
(-7.3385e-10 0.00176126 7.31081e-14)
(-7.32203e-10 0.00176307 7.27495e-14)
(-7.3611e-10 0.00177175 1.32712e-13)
(-7.40932e-10 0.00178122 1.34696e-13)
(-7.45668e-10 0.00179068 1.32928e-13)
(-7.49669e-10 0.00179936 7.3025e-14)
(-7.47921e-10 0.00180117 7.28018e-14)
(-7.5191e-10 0.00180985 1.32653e-13)
(-7.56667e-10 0.00181932 1.34718e-13)
(-7.61453e-10 0.00182878 1.32881e-13)
(-7.65415e-10 0.00183746 7.30383e-14)
(-7.63698e-10 0.00183927 7.2777e-14)
(-7.67664e-10 0.00184795 1.32657e-13)
(-7.72437e-10 0.00185742 1.3469e-13)
(-7.77213e-10 0.00186688 1.32877e-13)
(-7.81179e-10 0.00187556 7.30167e-14)
(-7.79463e-10 0.00187737 7.27833e-14)
(-7.83423e-10 0.00188605 1.32633e-13)
(-7.88207e-10 0.00189552 1.3469e-13)
(-7.92966e-10 0.00190498 1.32844e-13)
(-7.96956e-10 0.00191366 7.30268e-14)
(-7.95208e-10 0.00191548 7.27537e-14)
(-7.9921e-10 0.00192415 1.32652e-13)
(-8.03941e-10 0.00193362 1.34639e-13)
(-8.08766e-10 0.00194308 1.32876e-13)
(-8.12673e-10 0.00195176 7.29585e-14)
(-8.1103e-10 0.00195358 7.28219e-14)
(-8.14902e-10 0.00196226 1.32552e-13)
(-8.19793e-10 0.00197172 1.34737e-13)
(-8.2442e-10 0.00198119 1.32725e-13)
(-8.2857e-10 0.00198986 7.31171e-14)
(-8.26628e-10 0.00199168 7.26122e-14)
(-8.30868e-10 0.00200036 1.32792e-13)
(-8.35308e-10 0.00200982 1.34419e-13)
(-8.40487e-10 0.00201929 1.33084e-13)
(-8.43962e-10 0.00202796 7.26555e-14)
(-8.42844e-10 0.00202978 7.31607e-14)
(-8.4608e-10 0.00203846 1.32136e-13)
(-8.51745e-10 0.00204793 1.35776e-13)
(-8.55501e-10 0.00205744 1.35907e-13)
(-8.61167e-10 0.00206691 1.32444e-13)
(-8.64407e-10 0.00207559 7.34536e-14)
(-8.63282e-10 0.0020774 7.24827e-14)
(-8.6676e-10 0.00208608 1.32987e-13)
(-8.71935e-10 0.00209555 1.3451e-13)
(-8.76382e-10 0.00210501 1.33092e-13)
(-8.8062e-10 0.00211369 7.28772e-14)
(-8.78677e-10 0.00211551 7.29427e-14)
(-8.82825e-10 0.00212418 1.32592e-13)
(-8.87453e-10 0.00213365 1.34812e-13)
(-8.92345e-10 0.00214311 1.32818e-13)
(-8.96219e-10 0.00215179 7.30814e-14)
(-8.94574e-10 0.00215361 7.27627e-14)
(-8.9848e-10 0.00216229 1.32725e-13)
(-9.03304e-10 0.00217175 1.34682e-13)
(-9.08037e-10 0.00218122 1.32899e-13)
(-9.12041e-10 0.00218989 7.29951e-14)
(-9.1029e-10 0.00219171 7.28205e-14)
(-9.14283e-10 0.00220039 1.32664e-13)
(-9.19035e-10 0.00220985 1.3471e-13)
(-9.23827e-10 0.00221932 1.32855e-13)
(-9.2778e-10 0.00222799 7.30095e-14)
(-9.26074e-10 0.00222981 7.28001e-14)
(-9.30027e-10 0.00223849 1.32663e-13)
(-9.34817e-10 0.00224795 1.34695e-13)
(-9.39571e-10 0.00225742 1.32839e-13)
(-9.43565e-10 0.00226609 7.30112e-14)
(-9.41814e-10 0.00226791 7.27787e-14)
(-9.45818e-10 0.00227659 1.32678e-13)
(-9.50548e-10 0.00228605 1.3465e-13)
(-9.55374e-10 0.00229552 1.3287e-13)
(-9.59279e-10 0.00230419 7.29468e-14)
(-9.57637e-10 0.00230601 7.28458e-14)
(-9.61509e-10 0.00231469 1.32579e-13)
(-9.664e-10 0.00232415 1.34749e-13)
(-9.71027e-10 0.00233362 1.32721e-13)
(-9.75177e-10 0.0023423 7.31072e-14)
(-9.73235e-10 0.00234411 7.26358e-14)
(-9.77475e-10 0.00235279 1.32821e-13)
(-9.81915e-10 0.00236225 1.34432e-13)
(-9.87094e-10 0.00237172 1.33083e-13)
(-9.90569e-10 0.0023804 7.26458e-14)
(-9.89451e-10 0.00238221 7.3186e-14)
(-9.92687e-10 0.00239089 1.32164e-13)
(-9.98352e-10 0.00240036 1.35792e-13)
(-1.00211e-09 0.00240988 1.35904e-13)
(-1.00777e-09 0.00241935 1.32428e-13)
(-1.01101e-09 0.00242802 7.34358e-14)
(-1.00989e-09 0.00242984 7.24984e-14)
(-1.01337e-09 0.00243852 1.32999e-13)
(-1.01854e-09 0.00244798 1.34509e-13)
(-1.02299e-09 0.00245745 1.33077e-13)
(-1.02723e-09 0.00246612 7.28621e-14)
(-1.02528e-09 0.00246794 7.29579e-14)
(-1.02943e-09 0.00247662 1.32607e-13)
(-1.03406e-09 0.00248608 1.34813e-13)
(-1.03895e-09 0.00249555 1.32806e-13)
(-1.04283e-09 0.00250422 7.30676e-14)
(-1.04118e-09 0.00250604 7.27783e-14)
(-1.04509e-09 0.00251472 1.32741e-13)
(-1.04991e-09 0.00252418 1.34684e-13)
(-1.05464e-09 0.00253365 1.32891e-13)
(-1.05865e-09 0.00254232 7.29807e-14)
(-1.0569e-09 0.00254414 7.28394e-14)
(-1.06089e-09 0.00255282 1.32678e-13)
(-1.06564e-09 0.00256228 1.34718e-13)
(-1.07043e-09 0.00257175 1.32842e-13)
(-1.07439e-09 0.00258043 7.30051e-14)
(-1.07268e-09 0.00258224 7.28082e-14)
(-1.07664e-09 0.00259092 1.32692e-13)
(-1.08141e-09 0.00260039 1.34687e-13)
(-1.08619e-09 0.00260985 1.3285e-13)
(-1.09016e-09 0.00261853 7.29799e-14)
(-1.08844e-09 0.00262034 7.28225e-14)
(-1.0924e-09 0.00262902 1.32664e-13)
(-1.09718e-09 0.00263849 1.34698e-13)
(-1.10194e-09 0.00264795 1.32815e-13)
(-1.10593e-09 0.00265663 7.30001e-14)
(-1.10419e-09 0.00265844 7.2787e-14)
(-1.10819e-09 0.00266712 1.32693e-13)
(-1.11292e-09 0.00267659 1.34643e-13)
(-1.11774e-09 0.00268605 1.32859e-13)
(-1.12165e-09 0.00269473 7.29282e-14)
(-1.12001e-09 0.00269654 7.28626e-14)
(-1.12388e-09 0.00270522 1.32588e-13)
(-1.12877e-09 0.00271469 1.34752e-13)
(-1.1334e-09 0.00272415 1.32705e-13)
(-1.13755e-09 0.00273283 7.30961e-14)
(-1.13561e-09 0.00273464 7.26469e-14)
(-1.13984e-09 0.00274332 1.32837e-13)
(-1.14429e-09 0.00275279 1.3443e-13)
(-1.14946e-09 0.00276225 1.33074e-13)
(-1.15294e-09 0.00277093 7.26302e-14)
(-1.15182e-09 0.00277275 7.32033e-14)
(-1.15506e-09 0.00278142 1.32175e-13)
(-1.16072e-09 0.00279089 1.35797e-13)
(-1.16448e-09 0.00280041 1.35889e-13)
(-1.17014e-09 0.00280988 1.32407e-13)
(-1.17338e-09 0.00281856 7.34136e-14)
(-1.17226e-09 0.00282037 7.25081e-14)
(-1.17574e-09 0.00282905 1.32998e-13)
(-1.18091e-09 0.00283852 1.34502e-13)
(-1.18536e-09 0.00284798 1.33053e-13)
(-1.1896e-09 0.00285666 7.28467e-14)
(-1.18765e-09 0.00285847 7.29627e-14)
(-1.1918e-09 0.00286715 1.32612e-13)
(-1.19643e-09 0.00287662 1.34801e-13)
(-1.20132e-09 0.00288608 1.32789e-13)
(-1.2052e-09 0.00289476 7.30479e-14)
(-1.20355e-09 0.00289657 7.27894e-14)
(-1.20746e-09 0.00290525 1.32741e-13)
(-1.21228e-09 0.00291472 1.3468e-13)
(-1.21701e-09 0.00292418 1.32869e-13)
(-1.22102e-09 0.00293286 7.29697e-14)
(-1.21927e-09 0.00293467 7.28427e-14)
(-1.22326e-09 0.00294335 1.32688e-13)
(-1.22801e-09 0.00295282 1.34706e-13)
(-1.2328e-09 0.00296228 1.32833e-13)
(-1.23676e-09 0.00297096 7.29813e-14)
(-1.23505e-09 0.00297278 7.28284e-14)
(-1.239e-09 0.00298145 1.32685e-13)
(-1.24379e-09 0.00299092 1.34699e-13)
(-1.24855e-09 0.00300038 1.32815e-13)
(-1.25254e-09 0.00300906 7.29904e-14)
(-1.25079e-09 0.00301088 7.28027e-14)
(-1.25479e-09 0.00301955 1.32707e-13)
(-1.25952e-09 0.00302902 1.34652e-13)
(-1.26435e-09 0.00303848 1.32855e-13)
(-1.26826e-09 0.00304716 7.29231e-14)
(-1.26661e-09 0.00304898 7.28755e-14)
(-1.27049e-09 0.00305766 1.32605e-13)
(-1.27538e-09 0.00306712 1.34759e-13)
(-1.28e-09 0.00307659 1.32704e-13)
(-1.28415e-09 0.00308526 7.30907e-14)
(-1.28221e-09 0.00308708 7.26611e-14)
(-1.28645e-09 0.00309576 1.32854e-13)
(-1.29089e-09 0.00310522 1.34439e-13)
(-1.29607e-09 0.00311469 1.33074e-13)
(-1.29955e-09 0.00312336 7.26258e-14)
(-1.29843e-09 0.00312518 7.32176e-14)
(-1.30166e-09 0.00313386 1.32193e-13)
(-1.30733e-09 0.00314333 1.35807e-13)
(-1.31108e-09 0.00315284 1.35888e-13)
(-1.31675e-09 0.00316231 1.32398e-13)
(-1.31999e-09 0.00317099 7.34045e-14)
(-1.31887e-09 0.0031728 7.25171e-14)
(-1.32234e-09 0.00318148 1.33006e-13)
(-1.32752e-09 0.00319095 1.34502e-13)
(-1.33197e-09 0.00320041 1.33046e-13)
(-1.3362e-09 0.00320909 7.28383e-14)
(-1.33426e-09 0.00321091 7.29723e-14)
(-1.33841e-09 0.00321958 1.32621e-13)
(-1.34304e-09 0.00322905 1.34803e-13)
(-1.34793e-09 0.00323851 1.32782e-13)
(-1.3518e-09 0.00324719 7.30411e-14)
(-1.35016e-09 0.00324901 7.27982e-14)
(-1.35406e-09 0.00325769 1.32753e-13)
(-1.35889e-09 0.00326715 1.34682e-13)
(-1.36362e-09 0.00327662 1.32866e-13)
(-1.36762e-09 0.00328529 7.29607e-14)
(-1.36588e-09 0.00328711 7.28556e-14)
(-1.36986e-09 0.00329579 1.32696e-13)
(-1.37462e-09 0.00330525 1.34714e-13)
(-1.37941e-09 0.00331472 1.32824e-13)
(-1.38337e-09 0.00332339 7.29824e-14)
(-1.38165e-09 0.00332521 7.28297e-14)
(-1.38562e-09 0.00333389 1.32707e-13)
(-1.39039e-09 0.00334335 1.34689e-13)
(-1.39517e-09 0.00335282 1.3283e-13)
(-1.39913e-09 0.00336149 7.29633e-14)
(-1.39742e-09 0.00336331 7.28402e-14)
(-1.40138e-09 0.00337199 1.32686e-13)
(-1.40616e-09 0.00338145 1.34698e-13)
(-1.41092e-09 0.00339092 1.32803e-13)
(-1.41491e-09 0.00339959 7.29808e-14)
(-1.41316e-09 0.00340141 7.28097e-14)
(-1.41716e-09 0.00341009 1.32712e-13)
(-1.4219e-09 0.00341955 1.3465e-13)
(-1.42672e-09 0.00342902 1.32844e-13)
(-1.43063e-09 0.0034377 7.29148e-14)
(-1.42898e-09 0.00343951 7.28816e-14)
(-1.43286e-09 0.00344819 1.32613e-13)
(-1.43775e-09 0.00345765 1.34756e-13)
(-1.44237e-09 0.00346712 1.32697e-13)
(-1.44652e-09 0.0034758 7.308e-14)
(-1.44458e-09 0.00347761 7.26707e-14)
(-1.44882e-09 0.00348629 1.32859e-13)
(-1.45326e-09 0.00349576 1.3444e-13)
(-1.45844e-09 0.00350522 1.33065e-13)
(-1.46192e-09 0.0035139 7.26195e-14)
(-1.4608e-09 0.00351571 7.32239e-14)
(-1.46403e-09 0.00352439 1.32202e-13)
(-1.4697e-09 0.00353386 1.35805e-13)
(-1.47345e-09 0.00354338 1.35881e-13)
(-1.47912e-09 0.00355285 1.32381e-13)
(-1.48236e-09 0.00356152 7.3394e-14)
(-1.48124e-09 0.00356334 7.2519e-14)
(-1.48471e-09 0.00357202 1.33008e-13)
(-1.48989e-09 0.00358148 1.34493e-13)
(-1.49434e-09 0.00359095 1.33033e-13)
(-1.49857e-09 0.00359962 7.28251e-14)
(-1.49663e-09 0.00360144 7.29781e-14)
(-1.50078e-09 0.00361012 1.3262e-13)
(-1.50541e-09 0.00361958 1.34799e-13)
(-1.5103e-09 0.00362905 1.32768e-13)
(-1.51417e-09 0.00363773 7.30318e-14)
(-1.51253e-09 0.00363954 7.28014e-14)
(-1.51643e-09 0.00364822 1.32755e-13)
(-1.52126e-09 0.00365768 1.34676e-13)
(-1.52599e-09 0.00366715 1.32854e-13)
(-1.52999e-09 0.00367583 7.29508e-14)
(-1.52824e-09 0.00367764 7.28595e-14)
(-1.53224e-09 0.00368632 1.32699e-13)
(-1.53699e-09 0.00369579 1.34707e-13)
(-1.54178e-09 0.00370525 1.32817e-13)
(-1.54573e-09 0.00371393 7.29679e-14)
(-1.54403e-09 0.00371574 7.28417e-14)
(-1.54798e-09 0.00372442 1.32701e-13)
(-1.55277e-09 0.00373389 1.34698e-13)
(-1.55752e-09 0.00374335 1.32805e-13)
(-1.56152e-09 0.00375203 7.29742e-14)
(-1.55977e-09 0.00375384 7.28207e-14)
(-1.56377e-09 0.00376252 1.3272e-13)
(-1.5685e-09 0.00377199 1.34656e-13)
(-1.57333e-09 0.00378145 1.32843e-13)
(-1.57723e-09 0.00379013 7.29123e-14)
(-1.57559e-09 0.00379194 7.289e-14)
(-1.57946e-09 0.00380062 1.32624e-13)
(-1.58435e-09 0.00381009 1.34761e-13)
(-1.58898e-09 0.00381955 1.32698e-13)
(-1.59313e-09 0.00382823 7.3077e-14)
(-1.59119e-09 0.00383005 7.26801e-14)
(-1.59543e-09 0.00383872 1.32871e-13)
(-1.59987e-09 0.00384819 1.34446e-13)
(-1.60505e-09 0.00385765 1.33066e-13)
(-1.60852e-09 0.00386633 7.2617e-14)
(-1.6074e-09 0.00386815 7.32334e-14)
(-1.61064e-09 0.00387682 1.32214e-13)
(-1.61631e-09 0.00388629 1.35812e-13)
(-1.62006e-09 0.00389581 1.35882e-13)
(-1.62573e-09 0.00390528 1.32377e-13)
(-1.62897e-09 0.00391396 7.33885e-14)
(-1.62784e-09 0.00391577 7.25252e-14)
(-1.63132e-09 0.00392445 1.33014e-13)
(-1.6365e-09 0.00393392 1.34494e-13)
(-1.64094e-09 0.00394338 1.33029e-13)
(-1.64518e-09 0.00395206 7.282e-14)
(-1.64324e-09 0.00395387 7.29847e-14)
(-1.64739e-09 0.00396255 1.32626e-13)
(-1.65201e-09 0.00397202 1.34801e-13)
(-1.65691e-09 0.00398148 1.32764e-13)
(-1.66078e-09 0.00399016 7.30279e-14)
(-1.65913e-09 0.00399197 7.28072e-14)
(-1.66304e-09 0.00400065 1.32763e-13)
(-1.66786e-09 0.00401012 1.34677e-13)
(-1.6726e-09 0.00401958 1.32853e-13)
(-1.6766e-09 0.00402826 7.29446e-14)
(-1.67485e-09 0.00403007 7.28692e-14)
(-1.67884e-09 0.00403875 1.32704e-13)
(-1.6836e-09 0.00404822 1.34714e-13)
(-1.68838e-09 0.00405768 1.32809e-13)
(-1.69235e-09 0.00406636 7.29715e-14)
(-1.69063e-09 0.00406818 7.28398e-14)
(-1.69459e-09 0.00407685 1.32721e-13)
(-1.69937e-09 0.00408632 1.34687e-13)
(-1.70414e-09 0.00409578 1.32821e-13)
(-1.70811e-09 0.00410446 7.29494e-14)
(-1.70639e-09 0.00410628 7.28549e-14)
(-1.71035e-09 0.00411496 1.32696e-13)
(-1.71514e-09 0.00412442 1.34701e-13)
(-1.7199e-09 0.00413389 1.32791e-13)
(-1.72389e-09 0.00414256 7.29719e-14)
(-1.72214e-09 0.00414438 7.28209e-14)
(-1.72614e-09 0.00415306 1.32727e-13)
(-1.73087e-09 0.00416252 1.34651e-13)
(-1.7357e-09 0.00417199 1.32838e-13)
(-1.7396e-09 0.00418066 7.29028e-14)
(-1.73796e-09 0.00418248 7.28972e-14)
(-1.74183e-09 0.00419116 1.32625e-13)
(-1.74672e-09 0.00420062 1.34762e-13)
(-1.75135e-09 0.00421009 1.32689e-13)
(-1.7555e-09 0.00421876 7.3073e-14)
(-1.75356e-09 0.00422058 7.26827e-14)
(-1.7578e-09 0.00422926 1.32877e-13)
(-1.76224e-09 0.00423872 1.34443e-13)
(-1.76742e-09 0.00424819 1.33062e-13)
(-1.77089e-09 0.00425686 7.26091e-14)
(-1.76977e-09 0.00425868 7.32407e-14)
(-1.77301e-09 0.00426736 1.32216e-13)
(-1.77868e-09 0.00427683 1.35814e-13)
(-1.78243e-09 0.00428635 1.35873e-13)
(-1.7881e-09 0.00429581 1.32368e-13)
(-1.79134e-09 0.00430449 7.33778e-14)
(-1.79021e-09 0.00430631 7.25295e-14)
(-1.79369e-09 0.00431498 1.33011e-13)
(-1.79887e-09 0.00432445 1.34491e-13)
(-1.80331e-09 0.00433391 1.33017e-13)
(-1.80755e-09 0.00434259 7.28142e-14)
(-1.80561e-09 0.00434441 7.29849e-14)
(-1.80976e-09 0.00435309 1.32629e-13)
(-1.81438e-09 0.00436255 1.34794e-13)
(-1.81928e-09 0.00437202 1.32757e-13)
(-1.82315e-09 0.00438069 7.30177e-14)
(-1.82151e-09 0.00438251 7.28127e-14)
(-1.82541e-09 0.00439119 1.32761e-13)
(-1.83024e-09 0.00440065 1.34676e-13)
(-1.83497e-09 0.00441012 1.32841e-13)
(-1.83897e-09 0.00441879 7.29417e-14)
(-1.83722e-09 0.00442061 7.28673e-14)
(-1.84121e-09 0.00442929 1.3271e-13)
(-1.84597e-09 0.00443875 1.34704e-13)
(-1.85076e-09 0.00444822 1.32809e-13)
(-1.85471e-09 0.00445689 7.29556e-14)
(-1.85301e-09 0.00445871 7.2854e-14)
(-1.85696e-09 0.00446739 1.32709e-13)
(-1.86175e-09 0.00447685 1.347e-13)
(-1.8665e-09 0.00448632 1.32794e-13)
(-1.8705e-09 0.004495 7.29668e-14)
(-1.86874e-09 0.00449681 7.28293e-14)
(-1.87275e-09 0.00450549 1.32733e-13)
(-1.87748e-09 0.00451495 1.34656e-13)
(-1.8823e-09 0.00452442 1.32838e-13)
(-1.88621e-09 0.0045331 7.29016e-14)
(-1.88457e-09 0.00453491 7.29031e-14)
(-1.88844e-09 0.00454359 1.32633e-13)
(-1.89333e-09 0.00455306 1.34766e-13)
(-1.89796e-09 0.00456252 1.3269e-13)
(-1.90211e-09 0.0045712 7.30712e-14)
(-1.90017e-09 0.00457301 7.26895e-14)
(-1.90441e-09 0.00458169 1.32885e-13)
(-1.90885e-09 0.00459116 1.34448e-13)
(-1.91402e-09 0.00460062 1.33063e-13)
(-1.9175e-09 0.0046093 7.26076e-14)
(-1.91638e-09 0.00461111 7.32476e-14)
(-1.91962e-09 0.00461979 1.32225e-13)
(-1.92528e-09 0.00462926 1.35819e-13)
(-1.92904e-09 0.00463878 1.35874e-13)
(-1.9347e-09 0.00464825 1.32366e-13)
(-1.93794e-09 0.00465692 7.33742e-14)
(-1.93682e-09 0.00465874 7.25341e-14)
(-1.9403e-09 0.00466742 1.33016e-13)
(-1.94547e-09 0.00467688 1.34492e-13)
(-1.94992e-09 0.00468635 1.33015e-13)
(-1.95416e-09 0.00469503 7.28109e-14)
(-1.95222e-09 0.00469684 7.29897e-14)
(-1.95636e-09 0.00470552 1.32633e-13)
(-1.96099e-09 0.00471498 1.34796e-13)
(-1.96588e-09 0.00472445 1.32755e-13)
(-1.96976e-09 0.00473313 7.30154e-14)
(-1.96811e-09 0.00473494 7.28169e-14)
(-1.97202e-09 0.00474362 1.32767e-13)
(-1.97684e-09 0.00475308 1.34677e-13)
(-1.98158e-09 0.00476255 1.32841e-13)
(-1.98558e-09 0.00477123 7.2937e-14)
(-1.98383e-09 0.00477304 7.28751e-14)
(-1.98782e-09 0.00478172 1.32712e-13)
(-1.99258e-09 0.00479119 1.34711e-13)
(-1.99736e-09 0.00480065 1.32803e-13)
(-2.00132e-09 0.00480933 7.29603e-14)
(-1.99961e-09 0.00481114 7.28503e-14)
(-2.00357e-09 0.00481982 1.32726e-13)
(-2.00835e-09 0.00482929 1.34689e-13)
(-2.01312e-09 0.00483875 1.32811e-13)
(-2.01709e-09 0.00484743 7.29432e-14)
(-2.01537e-09 0.00484924 7.28615e-14)
(-2.01933e-09 0.00485792 1.32706e-13)
(-2.02412e-09 0.00486739 1.347e-13)
(-2.02887e-09 0.00487685 1.32787e-13)
(-2.03286e-09 0.00488553 7.29621e-14)
(-2.03112e-09 0.00488734 7.28322e-14)
(-2.03512e-09 0.00489602 1.32734e-13)
(-2.03985e-09 0.00490549 1.34655e-13)
(-2.04467e-09 0.00491495 1.32831e-13)
(-2.04858e-09 0.00492363 7.2898e-14)
(-2.04694e-09 0.00492545 7.29046e-14)
(-2.05081e-09 0.00493412 1.32637e-13)
(-2.0557e-09 0.00494359 1.34763e-13)
(-2.06033e-09 0.00495305 1.32687e-13)
(-2.06448e-09 0.00496173 7.30645e-14)
(-2.06254e-09 0.00496355 7.26947e-14)
(-2.06678e-09 0.00497222 1.32885e-13)
(-2.07122e-09 0.00498169 1.34449e-13)
(-2.07639e-09 0.00499115 1.33057e-13)
(-2.07987e-09 0.00499983 7.26053e-14)
(-2.07875e-09 0.00500165 7.3249e-14)
(-2.08199e-09 0.00501033 1.32229e-13)
(-2.08765e-09 0.00501979 1.35817e-13)
(-2.09141e-09 0.00502931 1.35871e-13)
(-2.09707e-09 0.00503878 1.32355e-13)
(-2.10031e-09 0.00504746 7.337e-14)
(-2.09919e-09 0.00504927 7.25334e-14)
(-2.10267e-09 0.00505795 1.33017e-13)
(-2.10784e-09 0.00506742 1.34485e-13)
(-2.11229e-09 0.00507688 1.33009e-13)
(-2.11653e-09 0.00508556 7.28029e-14)
(-2.11459e-09 0.00508737 7.29932e-14)
(-2.11873e-09 0.00509605 1.32631e-13)
(-2.12336e-09 0.00510552 1.34794e-13)
(-2.12825e-09 0.00511498 1.32746e-13)
(-2.13213e-09 0.00512366 7.30114e-14)
(-2.13048e-09 0.00512548 7.28171e-14)
(-2.13439e-09 0.00513415 1.32768e-13)
(-2.13921e-09 0.00514362 1.34672e-13)
(-2.14394e-09 0.00515308 1.32835e-13)
(-2.14795e-09 0.00516176 7.29315e-14)
(-2.1462e-09 0.00516358 7.28764e-14)
(-2.15019e-09 0.00517225 1.32714e-13)
(-2.15494e-09 0.00518172 1.34706e-13)
(-2.15974e-09 0.00519118 1.328e-13)
(-2.16369e-09 0.00519986 7.29504e-14)
(-2.16198e-09 0.00520168 7.2859e-14)
(-2.16593e-09 0.00521036 1.32718e-13)
(-2.17073e-09 0.00521982 1.34699e-13)
(-2.17548e-09 0.00522929 1.32791e-13)
(-2.17947e-09 0.00523796 7.29578e-14)
(-2.17772e-09 0.00523978 7.28392e-14)
(-2.18173e-09 0.00524846 1.32738e-13)
(-2.18646e-09 0.00525792 1.34659e-13)
(-2.19128e-09 0.00526739 1.3283e-13)
(-2.19519e-09 0.00527606 7.28976e-14)
(-2.19354e-09 0.00527788 7.29089e-14)
(-2.19742e-09 0.00528656 1.32644e-13)
(-2.20231e-09 0.00529602 1.34766e-13)
(-2.20694e-09 0.00530549 1.32688e-13)
(-2.21108e-09 0.00531416 7.30632e-14)
(-2.20914e-09 0.00531598 7.27e-14)
(-2.21338e-09 0.00532466 1.32892e-13)
(-2.21782e-09 0.00533412 1.34453e-13)
(-2.223e-09 0.00534359 1.33058e-13)
(-2.22648e-09 0.00535227 7.26045e-14)
(-2.22536e-09 0.00535408 7.32541e-14)
(-2.22859e-09 0.00536276 1.32236e-13)
(-2.23426e-09 0.00537223 1.35821e-13)
(-2.23802e-09 0.00538175 1.35872e-13)
(-2.24368e-09 0.00539121 1.32354e-13)
(-2.24692e-09 0.00539989 7.33676e-14)
(-2.2458e-09 0.00540171 7.25368e-14)
(-2.24927e-09 0.00541039 1.33021e-13)
(-2.25445e-09 0.00541985 1.34487e-13)
(-2.2589e-09 0.00542932 1.33008e-13)
(-2.26313e-09 0.00543799 7.28005e-14)
(-2.26119e-09 0.00543981 7.29972e-14)
(-2.26534e-09 0.00544849 1.32635e-13)
(-2.26997e-09 0.00545795 1.34796e-13)
(-2.27486e-09 0.00546742 1.32744e-13)
(-2.27873e-09 0.00547609 7.30101e-14)
(-2.27709e-09 0.00547791 7.28201e-14)
(-2.281e-09 0.00548659 1.32774e-13)
(-2.28582e-09 0.00549605 1.34673e-13)
(-2.29055e-09 0.00550552 1.32836e-13)
(-2.29455e-09 0.00551419 7.29276e-14)
(-2.29281e-09 0.00551601 7.28832e-14)
(-2.2968e-09 0.00552469 1.32715e-13)
(-2.30155e-09 0.00553415 1.34713e-13)
(-2.30634e-09 0.00554362 1.32794e-13)
(-2.3103e-09 0.0055523 7.29561e-14)
(-2.30858e-09 0.00555411 7.28541e-14)
(-2.31255e-09 0.00556279 1.32734e-13)
(-2.31732e-09 0.00557225 1.34687e-13)
(-2.3221e-09 0.00558172 1.32808e-13)
(-2.32606e-09 0.0055904 7.29348e-14)
(-2.32435e-09 0.00559221 7.28703e-14)
(-2.32831e-09 0.00560089 1.3271e-13)
(-2.33309e-09 0.00561035 1.34703e-13)
(-2.33785e-09 0.00561982 1.3278e-13)
(-2.34184e-09 0.0056285 7.29588e-14)
(-2.34009e-09 0.00563031 7.28365e-14)
(-2.34409e-09 0.00563899 1.32743e-13)
(-2.34883e-09 0.00564846 1.34654e-13)
(-2.35365e-09 0.00565792 1.32829e-13)
(-2.35756e-09 0.0056666 7.28905e-14)
(-2.35591e-09 0.00566841 7.2914e-14)
(-2.35979e-09 0.00567709 1.32642e-13)
(-2.36468e-09 0.00568656 1.34767e-13)
(-2.36931e-09 0.00569602 1.32681e-13)
(-2.37345e-09 0.0057047 7.30622e-14)
(-2.37151e-09 0.00570651 7.26996e-14)
(-2.37575e-09 0.00571519 1.32896e-13)
(-2.38019e-09 0.00572466 1.34449e-13)
(-2.38537e-09 0.00573412 1.33056e-13)
(-2.38885e-09 0.0057428 7.25986e-14)
(-2.38773e-09 0.00574461 7.32591e-14)
(-2.39097e-09 0.00575329 1.32235e-13)
(-2.39663e-09 0.00576276 1.35823e-13)
(-2.40039e-09 0.00577228 1.35866e-13)
(-2.40605e-09 0.00578175 1.3235e-13)
(-2.40929e-09 0.00579043 7.33601e-14)
(-2.40817e-09 0.00579224 7.25402e-14)
(-2.41165e-09 0.00580092 1.33017e-13)
(-2.41682e-09 0.00581038 1.34486e-13)
(-2.42127e-09 0.00581985 1.32999e-13)
(-2.4255e-09 0.00582853 7.27985e-14)
(-2.42356e-09 0.00583034 7.29954e-14)
(-2.42771e-09 0.00583902 1.32637e-13)
(-2.43234e-09 0.00584848 1.3479e-13)
(-2.43723e-09 0.00585795 1.32742e-13)
(-2.4411e-09 0.00586663 7.30025e-14)
(-2.43946e-09 0.00586844 7.28245e-14)
(-2.44336e-09 0.00587712 1.3277e-13)