/*--------------------------------*- C++ -*----------------------------------*\
| =========                 |                                                 |
| \\      /  F ield         | OpenFOAM: The Open Source CFD Toolbox           |
|  \\    /   O peration     | Version:  2206                                  |
|   \\  /    A nd           | Website:  www.openfoam.com                      |
|    \\/     M anipulation  |                                                 |
\*---------------------------------------------------------------------------*/
FoamFile
{
    version     2.0;
    format      ascii;
    arch        "LSB;label=32;scalar=64";
    class       surfaceScalarField;
    location    "30";
    object      phi;
}
// * * * * * * * * * * * * * * * * * * * * * * * * * * * * * * * * * * * * * //

dimensions      [0 3 -1 0 0 0 0];

oriented        oriented;

internalField   nonuniform List<scalar> 
94990
(
6.73586e-24
-1.57165e-22
3.49352e-23
3.14902e-23
-1.26838e-23
-2.80199e-23
-2.38576e-24
3.13532e-23
-3.99378e-23
-1.37543e-23
-1.64607e-23
1.30404e-23
-4.60353e-23
-8.61172e-24
-3.74442e-23
2.18891e-23
-5.46991e-23
-1.2653e-23
-4.53902e-23
1.67684e-23
-6.36843e-23
-6.1203e-24
-5.44037e-23
1.33515e-23
-7.17768e-23
-3.19566e-24
-6.45683e-23
1.25711e-23
-8.06002e-23
-1.57103e-24
-7.56668e-23
1.2464e-23
-9.07644e-23
-1.12695e-25
-8.78422e-23
1.24782e-23
-1.02381e-22
1.28682e-24
-1.01255e-22
1.25902e-23
-1.15512e-22
2.62125e-24
-1.16013e-22
1.2788e-23
-1.30191e-22
3.8845e-24
-1.32189e-22
1.30626e-23
-1.46435e-22
5.07972e-24
-1.49825e-22
1.34024e-23
-1.64253e-22
6.21533e-24
-1.68949e-22
1.37962e-23
-1.83649e-22
7.30015e-24
-1.89578e-22
1.42346e-23
-2.0462e-22
8.34192e-24
-2.11721e-22
1.47106e-23
-2.27163e-22
9.3471e-24
-2.35384e-22
1.52184e-23
-2.51273e-22
1.0321e-23
-2.6057e-22
1.57533e-23
-2.76946e-22
1.12682e-23
-2.87281e-22
1.63115e-23
-3.04176e-22
1.21922e-23
-3.15516e-22
1.68899e-23
-3.32958e-22
1.30963e-23
-3.45276e-22
1.74856e-23
-3.63287e-22
1.39832e-23
-3.76559e-22
1.80965e-23
-3.9516e-22
1.48551e-23
-4.09364e-22
1.87205e-23
-4.28571e-22
1.57141e-23
-4.43689e-22
1.93559e-23
-4.63518e-22
1.65616e-23
-4.79533e-22
2.00013e-23
-4.99996e-22
1.73993e-23
-5.16894e-22
2.06555e-23
-5.38001e-22
1.82283e-23
-5.55771e-22
2.13174e-23
-5.77532e-22
1.90496e-23
-5.96161e-22
2.19861e-23
-6.18584e-22
1.98641e-23
-6.38064e-22
2.26609e-23
-6.61155e-22
2.06727e-23
-6.81476e-22
2.3341e-23
-7.05243e-22
2.14759e-23
-7.26398e-22
2.40259e-23
-7.50845e-22
2.22744e-23
-7.72827e-22
2.47152e-23
-7.97959e-22
2.30687e-23
-8.20762e-22
2.54084e-23
-8.46584e-22
2.38591e-23
-8.70202e-22
2.61051e-23
-8.96717e-22
2.46461e-23
-9.21145e-22
2.68049e-23
-9.48358e-22
2.543e-23
-9.73591e-22
2.75077e-23
-1.0015e-21
2.6211e-23
-1.02754e-21
2.82132e-23
-1.05615e-21
2.69895e-23
-1.08299e-21
2.89211e-23
-1.11231e-21
2.77657e-23
-1.13993e-21
2.96312e-23
-1.16996e-21
2.85398e-23
-1.19838e-21
3.03433e-23
-1.22912e-21
2.93119e-23
-1.25832e-21
3.10574e-23
-1.28978e-21
3.00822e-23
-1.31977e-21
3.17732e-23
-1.35193e-21
3.08509e-23
-1.3827e-21
3.24905e-23
-1.41559e-21
3.16181e-23
-1.44714e-21
3.32094e-23
-1.48074e-21
3.2384e-23
-1.51307e-21
3.39296e-23
-1.54739e-21
3.31486e-23
-1.5805e-21
3.46511e-23
-1.61553e-21
3.3912e-23
-1.64942e-21
3.53737e-23
-1.68518e-21
3.46743e-23
-1.71983e-21
3.60974e-23
-1.75631e-21
3.54357e-23
-1.79174e-21
3.68221e-23
-1.82894e-21
3.61961e-23
-1.86514e-21
3.75478e-23
-1.90307e-21
3.69557e-23
-1.94003e-21
3.82743e-23
-1.97869e-21
3.77145e-23
-2.01642e-21
3.90016e-23
-2.0558e-21
3.84725e-23
-2.0943e-21
3.97297e-23
-2.13441e-21
3.92299e-23
-2.17367e-21
4.04585e-23
-2.21451e-21
3.99867e-23
-2.25454e-21
4.11879e-23
-2.2961e-21
4.07429e-23
-2.33689e-21
4.19179e-23
-2.37919e-21
4.14985e-23
-2.42074e-21
4.26486e-23
-2.46376e-21
4.22536e-23
-2.50607e-21
4.33797e-23
-2.54983e-21
4.30082e-23
-2.5929e-21
4.41114e-23
-2.63739e-21
4.37624e-23
-2.68122e-21
4.48435e-23
-2.72644e-21
4.45162e-23
-2.77103e-21
4.55761e-23
-2.81698e-21
4.52695e-23
-2.86233e-21
4.63091e-23
-2.90901e-21
4.60225e-23
-2.95512e-21
4.70426e-23
-3.00253e-21
4.67751e-23
-3.0494e-21
4.77764e-23
-3.09754e-21
4.75274e-23
-3.14517e-21
4.85105e-23
-3.19404e-21
4.82794e-23
-3.24243e-21
4.9245e-23
-3.29203e-21
4.90311e-23
-3.34117e-21
4.99798e-23
-3.39152e-21
4.97825e-23
-3.44141e-21
5.0715e-23
-3.49249e-21
5.05336e-23
-3.54314e-21
5.14504e-23
-3.59495e-21
5.12845e-23
-3.64635e-21
5.21861e-23
-3.6989e-21
5.20352e-23
-3.75106e-21
5.2922e-23
-3.80434e-21
5.27856e-23
-3.85725e-21
5.36583e-23
-3.91126e-21
5.35358e-23
-3.96493e-21
5.43947e-23
-4.01968e-21
5.42858e-23
-4.0741e-21
5.51314e-23
-4.12959e-21
5.50355e-23
-4.18476e-21
5.58683e-23
-4.24098e-21
5.57851e-23
-4.29691e-21
5.66054e-23
-4.35387e-21
5.65346e-23
-4.41054e-21
5.73427e-23
-4.46824e-21
5.72838e-23
-4.52567e-21
5.80803e-23
-4.5841e-21
5.80329e-23
-4.64228e-21
5.8818e-23
-4.70145e-21
5.87818e-23
-4.76038e-21
5.95558e-23
-4.82028e-21
5.95306e-23
-4.87997e-21
6.02939e-23
-4.94061e-21
6.02792e-23
-5.00105e-21
6.10321e-23
-5.06242e-21
6.10277e-23
-5.12361e-21
6.17704e-23
-5.18573e-21
6.17761e-23
-5.24766e-21
6.25089e-23
-5.31052e-21
6.25243e-23
-5.37321e-21
6.32476e-23
-5.43679e-21
6.32725e-23
-5.50023e-21
6.39864e-23
-5.56456e-21
6.40205e-23
-5.62875e-21
6.47253e-23
-5.69381e-21
6.47684e-23
-5.75875e-21
6.54644e-23
-5.82456e-21
6.55161e-23
-5.89025e-21
6.62035e-23
-5.95679e-21
6.62638e-23
-6.02323e-21
6.69428e-23
-6.0905e-21
6.70114e-23
-6.15769e-21
6.76822e-23
-6.22571e-21
6.77589e-23
-6.29365e-21
6.84217e-23
-6.3624e-21
6.85063e-23
-6.43109e-21
6.91613e-23
-6.50058e-21
6.92536e-23
-6.57002e-21
6.99011e-23
-6.64025e-21
7.00008e-23
-6.71044e-21
7.06409e-23
-6.78141e-21
7.0748e-23
-6.85234e-21
7.13808e-23
-6.92405e-21
7.1495e-23
-6.99573e-21
7.21208e-23
-7.06818e-21
7.2242e-23
-7.14061e-21
7.28608e-23
-7.2138e-21
7.2989e-23
-7.28698e-21
7.3601e-23
-7.3609e-21
7.37358e-23
-7.43483e-21
7.43412e-23
-7.5095e-21
7.44826e-23
-7.58417e-21
7.50816e-23
-7.65958e-21
7.52293e-23
-7.735e-21
7.5822e-23
-7.81114e-21
7.5976e-23
-7.88732e-21
7.65624e-23
-7.9642e-21
7.67226e-23
-8.04112e-21
7.73029e-23
-8.11874e-21
7.74692e-23
-8.19641e-21
7.80435e-23
-8.27477e-21
7.82157e-23
-8.35319e-21
7.87842e-23
-8.43229e-21
7.89621e-23
-8.51145e-21
7.95249e-23
-8.59129e-21
7.97085e-23
-8.6712e-21
8.02657e-23
-8.75178e-21
8.04549e-23
-8.83244e-21
8.10065e-23
-8.91376e-21
8.12012e-23
-8.99517e-21
8.17474e-23
-9.07723e-21
8.19474e-23
-9.15938e-21
8.24884e-23
-9.24218e-21
8.26936e-23
-9.32508e-21
8.32294e-23
-9.40862e-21
8.34398e-23
-9.49226e-21
8.39704e-23
-9.57655e-21
8.41859e-23
-9.66094e-21
8.47115e-23
-9.74596e-21
8.4932e-23
-9.8311e-21
8.54527e-23
-9.91686e-21
8.56781e-23
-1.00027e-20
8.61939e-23
-1.00892e-20
8.64241e-23
-1.01759e-20
8.69351e-23
-1.02631e-20
8.71701e-23
-1.03505e-20
8.76764e-23
-1.04385e-20
8.7916e-23
-1.05266e-20
8.84177e-23
-1.06153e-20
8.86619e-23
-1.07042e-20
8.9159e-23
-1.07937e-20
8.94078e-23
-1.08833e-20
8.99004e-23
-1.09735e-20
9.01537e-23
-1.10639e-20
9.06419e-23
-1.11548e-20
9.08995e-23
-1.12459e-20
9.13833e-23
-1.13376e-20
9.16453e-23
-1.14295e-20
9.21248e-23
-1.15219e-20
9.2391e-23
-1.16145e-20
9.28664e-23
-1.17076e-20
9.31367e-23
-1.1801e-20
9.36079e-23
-1.18949e-20
9.38824e-23
-1.1989e-20
9.43495e-23
-1.20837e-20
9.46281e-23
-1.21785e-20
9.50912e-23
-1.22739e-20
9.53738e-23
-1.23695e-20
9.58328e-23
-1.24656e-20
9.61194e-23
-1.25619e-20
9.65745e-23
-1.26588e-20
9.6865e-23
-1.27559e-20
9.73163e-23
-1.28535e-20
9.76106e-23
-1.29513e-20
9.8058e-23
-1.30497e-20
9.83561e-23
-1.31482e-20
9.87998e-23
-1.32473e-20
9.91017e-23
-1.33467e-20
9.95416e-23
-1.34465e-20
9.98472e-23
-1.35466e-20
1.00283e-22
-1.36471e-20
1.00593e-22
-1.37479e-20
1.01025e-22
-1.38493e-20
1.01338e-22
-1.39508e-20
1.01767e-22
-1.40529e-20
1.02084e-22
-1.41552e-20
1.02509e-22
-1.4258e-20
1.02829e-22
-1.4361e-20
1.03251e-22
-1.44645e-20
1.03574e-22
-1.45683e-20
1.03993e-22
-1.46726e-20
1.0432e-22
-1.47772e-20
1.04735e-22
-1.48822e-20
1.05065e-22
-1.49875e-20
1.05477e-22
-1.50932e-20
1.05811e-22
-1.51993e-20
1.06219e-22
-1.53058e-20
1.06556e-22
-1.54125e-20
1.06961e-22
-1.55198e-20
1.07301e-22
-1.56273e-20
1.07703e-22
-1.57353e-20
1.08047e-22
-1.58436e-20
1.08445e-22
-1.59523e-20
1.08792e-22
-1.60613e-20
1.09187e-22
-1.61708e-20
1.09537e-22
-1.62805e-20
1.09929e-22
-1.63907e-20
1.10282e-22
-1.65012e-20
1.10671e-22
-1.66122e-20
1.11028e-22
-1.67234e-20
1.11414e-22
-1.68351e-20
1.11773e-22
-1.69471e-20
1.12156e-22
-1.70595e-20
1.12518e-22
-1.71723e-20
1.12898e-22
-1.72854e-20
1.13263e-22
-1.73989e-20
1.1364e-22
-1.75128e-20
1.14009e-22
-1.76271e-20
1.14382e-22
-1.77417e-20
1.14754e-22
-1.78567e-20
1.15125e-22
-1.79721e-20
1.15499e-22
-1.80878e-20
1.15867e-22
-1.8204e-20
1.16244e-22
-1.83204e-20
1.16609e-22
-1.84373e-20
1.16989e-22
-1.85545e-20
1.17351e-22
-1.86721e-20
1.17734e-22
-1.87901e-20
1.18094e-22
-1.89085e-20
1.1848e-22
-1.90272e-20
1.18836e-22
-1.91463e-20
1.19225e-22
-1.92657e-20
1.19578e-22
-1.93856e-20
1.1997e-22
-1.95058e-20
1.20321e-22
-1.96263e-20
1.20715e-22
-1.97473e-20
1.21063e-22
-1.98686e-20
1.2146e-22
-1.99903e-20
1.21805e-22
-2.01124e-20
1.22205e-22
-2.02348e-20
1.22548e-22
-2.03576e-20
1.2295e-22
-2.04808e-20
1.2329e-22
-2.06043e-20
1.23695e-22
-2.07282e-20
1.24032e-22
-2.08525e-20
1.2444e-22
-2.09772e-20
1.24775e-22
-2.11022e-20
1.25185e-22
-2.12276e-20
1.25517e-22
-2.13534e-20
1.2593e-22
-2.14796e-20
1.2626e-22
-2.16061e-20
1.26675e-22
-2.1733e-20
1.27002e-22
-2.18602e-20
1.2742e-22
-2.19879e-20
1.27745e-22
-2.21159e-20
1.28165e-22
-2.22443e-20
1.28487e-22
-2.2373e-20
1.2891e-22
-2.25022e-20
1.29229e-22
-2.26316e-20
1.29655e-22
-2.27615e-20
1.29972e-22
-2.28917e-20
1.304e-22
-2.30224e-20
1.30714e-22
-2.31533e-20
1.31145e-22
-2.32847e-20
1.31457e-22
-2.34164e-20
1.3189e-22
-2.35485e-20
1.32199e-22
-2.3681e-20
1.32635e-22
-2.38138e-20
1.32942e-22
-2.3947e-20
1.3338e-22
-2.40806e-20
1.33684e-22
-2.42146e-20
1.34125e-22
-2.43489e-20
1.34427e-22
-2.44836e-20
1.3487e-22
-2.46187e-20
1.35169e-22
-2.47541e-20
1.35615e-22
-2.48899e-20
1.35912e-22
-2.50261e-20
1.3636e-22
-2.51627e-20
1.36654e-22
-2.52996e-20
1.37105e-22
-2.54369e-20
1.37397e-22
-2.55745e-20
1.3785e-22
-2.57126e-20
1.3814e-22
-2.5851e-20
1.38595e-22
-2.59898e-20
1.38882e-22
-2.61289e-20
1.3934e-22
-2.62685e-20
1.39625e-22
-2.64084e-20
1.40085e-22
-2.65487e-20
1.40367e-22
-2.66893e-20
1.4083e-22
-2.68303e-20
1.4111e-22
-2.69717e-20
1.41575e-22
-2.71135e-20
1.41852e-22
-2.72556e-20
1.42319e-22
-2.73981e-20
1.42595e-22
-2.7541e-20
1.43064e-22
-2.76842e-20
1.43338e-22
-2.78278e-20
1.43809e-22
-2.79719e-20
1.4408e-22
-2.81162e-20
1.44554e-22
-2.82609e-20
1.44823e-22
-2.8406e-20
1.45299e-22
-2.85515e-20
1.45565e-22
-2.86973e-20
1.46044e-22
-2.88436e-20
1.46308e-22
-2.89901e-20
1.46789e-22
-2.91371e-20
1.47051e-22
-2.92844e-20
1.47534e-22
-2.94322e-20
1.47793e-22
-2.95802e-20
1.48278e-22
-2.97287e-20
1.48536e-22
-2.98775e-20
1.49023e-22
-3.00267e-20
1.49279e-22
-3.01762e-20
1.49768e-22
-3.03262e-20
1.50021e-22
-3.04765e-20
1.50513e-22
-3.06272e-20
1.50764e-22
-3.07782e-20
1.51258e-22
-3.09297e-20
1.51507e-22
-3.10814e-20
1.52003e-22
-3.12336e-20
1.52249e-22
-3.13861e-20
1.52748e-22
-3.15391e-20
1.52992e-22
-3.16923e-20
1.53493e-22
-3.1846e-20
1.53735e-22
-3.2e-20
1.54237e-22
-3.21544e-20
1.54477e-22
-3.23091e-20
1.54982e-22
-3.24643e-20
1.5522e-22
-3.26198e-20
1.55727e-22
-3.27757e-20
1.55963e-22
-3.29319e-20
1.56472e-22
-3.30886e-20
1.56705e-22
-3.32455e-20
1.57217e-22
-3.3403e-20
1.57448e-22
-3.35606e-20
1.57962e-22
-3.37188e-20
1.58191e-22
-3.38772e-20
1.58706e-22
-3.40362e-20
1.58933e-22
-3.41953e-20
1.59451e-22
-3.4355e-20
1.59676e-22
-3.45149e-20
1.60196e-22
-3.46753e-20
1.60419e-22
-3.48359e-20
1.60941e-22
-3.49971e-20
1.61161e-22
-3.51585e-20
1.61686e-22
-3.53204e-20
1.61904e-22
-3.54825e-20
1.62431e-22
-3.56451e-20
1.62647e-22
-3.5808e-20
1.63175e-22
-3.59714e-20
1.63389e-22
-3.6135e-20
1.6392e-22
-3.62991e-20
1.64132e-22
-3.64635e-20
1.64665e-22
-3.66284e-20
1.64875e-22
-3.67934e-20
1.6541e-22
-3.69591e-20
1.65618e-22
-3.71249e-20
1.66155e-22
-3.72913e-20
1.6636e-22
-3.74578e-20
1.669e-22
-3.7625e-20
1.67103e-22
-3.77923e-20
1.67644e-22
-3.79601e-20
1.67846e-22
-3.81282e-20
1.68389e-22
-3.82968e-20
1.68588e-22
-3.84656e-20
1.69134e-22
-3.86349e-20
1.69331e-22
-3.88045e-20
1.69879e-22
-3.89746e-20
1.70074e-22
-3.91449e-20
1.70624e-22
-3.93157e-20
1.70817e-22
-3.94867e-20
1.71369e-22
-3.96583e-20
1.71559e-22
-3.98301e-20
1.72113e-22
-4.00024e-20
1.72302e-22
-4.01749e-20
1.72858e-22
-4.0348e-20
1.73045e-22
-4.05212e-20
1.73603e-22
-4.0695e-20
1.73787e-22
-4.0869e-20
1.74348e-22
-4.10436e-20
1.7453e-22
-4.12183e-20
1.75093e-22
-4.13936e-20
1.75273e-22
-4.15691e-20
1.75838e-22
-4.17452e-20
1.76016e-22
-4.19214e-20
1.76582e-22
-4.20982e-20
1.76758e-22
-4.22751e-20
1.77327e-22
-4.24527e-20
1.77501e-22
-4.26304e-20
1.78072e-22
-4.28087e-20
1.78244e-22
-4.29871e-20
1.78817e-22
-4.31661e-20
1.78986e-22
-4.33453e-20
1.79562e-22
-4.35251e-20
1.79729e-22
-4.3705e-20
1.80307e-22
-4.38855e-20
1.80472e-22
-4.40662e-20
1.81051e-22
-4.42475e-20
1.81215e-22
-4.44289e-20
1.81796e-22
-4.46109e-20
1.81957e-22
-4.4793e-20
1.82541e-22
-4.49758e-20
1.827e-22
-4.51587e-20
1.83286e-22
-4.53422e-20
1.83443e-22
-4.55258e-20
1.84031e-22
-4.571e-20
1.84186e-22
-4.58944e-20
1.84776e-22
-4.60794e-20
1.84928e-22
-4.62645e-20
1.8552e-22
-4.64502e-20
1.85671e-22
-4.66361e-20
1.86265e-22
-4.68226e-20
1.86414e-22
-4.70092e-20
1.8701e-22
-4.71964e-20
1.87156e-22
-4.73837e-20
1.87755e-22
-4.75717e-20
1.87899e-22
-4.77598e-20
1.885e-22
-4.79485e-20
1.88642e-22
-4.81373e-20
1.89245e-22
-4.83268e-20
1.89385e-22
-4.85164e-20
1.89989e-22
-4.87066e-20
1.90127e-22
-4.88969e-20
1.90734e-22
-4.90878e-20
1.9087e-22
-4.92789e-20
1.91479e-22
-4.94706e-20
1.91613e-22
-4.96623e-20
1.92224e-22
-4.98548e-20
1.92356e-22
-5.00473e-20
1.92969e-22
-5.02405e-20
1.93098e-22
-5.04338e-20
1.93714e-22
-5.06277e-20
1.93841e-22
-5.08217e-20
1.94458e-22
-5.10164e-20
1.94584e-22
-5.12111e-20
1.95203e-22
-5.14066e-20
1.95326e-22
-5.1602e-20
1.95948e-22
-5.17982e-20
1.96069e-22
-5.19944e-20
1.96693e-22
-5.21914e-20
1.96812e-22
-5.23883e-20
1.97438e-22
-5.2586e-20
1.97555e-22
-5.27837e-20
1.98183e-22
-5.29821e-20
1.98297e-22
-5.31806e-20
1.98927e-22
-5.33797e-20
1.9904e-22
-5.35789e-20
1.99672e-22
-5.37788e-20
1.99783e-22
-5.39787e-20
2.00417e-22
-5.41794e-20
2.00526e-22
-5.43801e-20
2.01162e-22
-5.45814e-20
2.01268e-22
-5.47829e-20
2.01907e-22
-5.4985e-20
2.02011e-22
-5.51872e-20
2.02652e-22
-5.539e-20
2.02754e-22
-5.55929e-20
2.03397e-22
-5.57966e-20
2.03496e-22
-5.60002e-20
2.04141e-22
-5.62046e-20
2.04239e-22
-5.6409e-20
2.04886e-22
-5.66141e-20
2.04982e-22
-5.68192e-20
2.05631e-22
-5.7025e-20
2.05725e-22
-5.72309e-20
2.06376e-22
-5.74375e-20
2.06467e-22
-5.76441e-20
2.07121e-22
-5.78515e-20
2.0721e-22
-5.80588e-20
2.07866e-22
-5.82669e-20
2.07953e-22
-5.8475e-20
2.08611e-22
-5.86838e-20
2.08695e-22
-5.88927e-20
2.09355e-22
-5.91022e-20
2.09438e-22
-5.93118e-20
2.101e-22
-5.95221e-20
2.10181e-22
-5.97325e-20
2.10845e-22
-5.99435e-20
2.10924e-22
-6.01546e-20
2.1159e-22
-6.03664e-20
2.11666e-22
-6.05782e-20
2.12335e-22
-6.07908e-20
2.12409e-22
-6.10033e-20
2.1308e-22
-6.12166e-20
2.13152e-22
-6.14299e-20
2.13825e-22
-6.1644e-20
2.13894e-22
-6.1858e-20
2.1457e-22
-6.20728e-20
2.14637e-22
-6.22876e-20
2.15315e-22
-6.25031e-20
2.1538e-22
-6.27186e-20
2.16059e-22
-6.29349e-20
2.16122e-22
-6.31511e-20
2.16804e-22
-6.33681e-20
2.16865e-22
-6.35852e-20
2.17549e-22
-6.38029e-20
2.17608e-22
-6.40207e-20
2.18294e-22
-6.42392e-20
2.18351e-22
-6.44577e-20
2.19039e-22
-6.46769e-20
2.19093e-22
-6.48961e-20
2.19784e-22
-6.51161e-20
2.19836e-22
-6.53361e-20
2.20529e-22
-6.55568e-20
2.20579e-22
-6.57776e-20
2.21274e-22
-6.5999e-20
2.21321e-22
-6.62205e-20
2.22019e-22
-6.64427e-20
2.22064e-22
-6.66649e-20
2.22763e-22
-6.68879e-20
2.22807e-22
-6.71108e-20
2.23508e-22
-6.73345e-20
2.23549e-22
-6.75582e-20
2.24253e-22
-6.77827e-20
2.24292e-22
-6.80071e-20
2.24998e-22
-6.82323e-20
2.25035e-22
-6.84575e-20
2.25743e-22
-6.86834e-20
2.25777e-22
-6.89093e-20
2.26488e-22
-6.9136e-20
2.2652e-22
-6.93627e-20
2.27233e-22
-6.95901e-20
2.27263e-22
-6.98175e-20
2.27978e-22
-7.00457e-20
2.28005e-22
-7.02738e-20
2.28723e-22
-7.05028e-20
2.28748e-22
-7.07316e-20
2.29468e-22
-7.09613e-20
2.29491e-22
-7.11909e-20
2.30213e-22
-7.14213e-20
2.30233e-22
-7.16517e-20
2.30958e-22
-7.18829e-20
2.30976e-22
-7.2114e-20
2.31702e-22
-7.23459e-20
2.31719e-22
-7.25777e-20
2.32447e-22
-7.28104e-20
2.32461e-22
-7.3043e-20
2.33192e-22
-7.32763e-20
2.33204e-22
-7.35097e-20
2.33937e-22
-7.37438e-20
2.33947e-22
-7.39779e-20
2.34682e-22
-7.42128e-20
2.34689e-22
-7.44476e-20
2.35427e-22
-7.46832e-20
2.35432e-22
-7.49188e-20
2.36172e-22
-7.51551e-20
2.36175e-22
-7.53914e-20
2.36917e-22
-7.56285e-20
2.36917e-22
-7.58656e-20
2.37662e-22
-7.61034e-20
2.3766e-22
-7.63412e-20
2.38407e-22
-7.65798e-20
2.38403e-22
-7.68183e-20
2.39152e-22
-7.70577e-20
2.39145e-22
-7.7297e-20
2.39897e-22
-7.75371e-20
2.39888e-22
-7.77771e-20
2.40642e-22
-7.80179e-20
2.40631e-22
-7.82586e-20
2.41387e-22
-7.85002e-20
2.41373e-22
-7.87417e-20
2.42132e-22
-7.8984e-20
2.42116e-22
-7.92263e-20
2.42877e-22
-7.94693e-20
2.42859e-22
-7.97123e-20
2.43622e-22
-7.99561e-20
2.43601e-22
-8.01998e-20
2.44367e-22
-8.04444e-20
2.44344e-22
-8.06889e-20
2.45112e-22
-8.09342e-20
2.45086e-22
-8.11794e-20
2.45857e-22
-8.14254e-20
2.45829e-22
-8.16714e-20
2.46602e-22
-8.19182e-20
2.46572e-22
-8.21648e-20
2.47347e-22
-8.24124e-20
2.47314e-22
-8.26598e-20
2.48092e-22
-8.29081e-20
2.48057e-22
-8.31563e-20
2.48836e-22
-8.34053e-20
2.488e-22
-8.36542e-20
2.49581e-22
-8.3904e-20
2.49542e-22
-8.41536e-20
2.50326e-22
-8.44041e-20
2.50285e-22
-8.46545e-20
2.51071e-22
-8.49058e-20
2.51027e-22
-8.51569e-20
2.51816e-22
-8.54089e-20
2.5177e-22
-8.56608e-20
2.52561e-22
-8.59135e-20
2.52513e-22
-8.61662e-20
2.53306e-22
-8.64197e-20
2.53255e-22
-8.6673e-20
2.54051e-22
-8.69273e-20
2.53998e-22
-8.71814e-20
2.54797e-22
-8.74363e-20
2.5474e-22
-8.76912e-20
2.55542e-22
-8.79469e-20
2.55483e-22
-8.82025e-20
2.56287e-22
-8.8459e-20
2.56226e-22
-8.87153e-20
2.57032e-22
-8.89725e-20
2.56968e-22
-8.92296e-20
2.57777e-22
-8.94876e-20
2.57711e-22
-8.97454e-20
2.58522e-22
-9.00041e-20
2.58453e-22
-9.02626e-20
2.59267e-22
-9.05221e-20
2.59196e-22
-9.07814e-20
2.60012e-22
-9.10416e-20
2.59939e-22
-9.13016e-20
2.60757e-22
-9.15625e-20
2.60681e-22
-9.18233e-20
2.61502e-22
-9.2085e-20
2.61424e-22
-9.23465e-20
2.62247e-22
-9.2609e-20
2.62166e-22
-9.28712e-20
2.62992e-22
-9.31344e-20
2.62909e-22
-9.33974e-20
2.63737e-22
-9.36613e-20
2.63652e-22
-9.39251e-20
2.64482e-22
-9.41897e-20
2.64394e-22
-9.44542e-20
2.65227e-22
-9.47196e-20
2.65137e-22
-9.49848e-20
2.65972e-22
-9.5251e-20
2.65879e-22
-9.5517e-20
2.66717e-22
-9.57839e-20
2.66622e-22
-9.60506e-20
2.67462e-22
-9.63182e-20
2.67364e-22
-9.65857e-20
2.68207e-22
-9.68541e-20
2.68107e-22
-9.71223e-20
2.68952e-22
-9.73914e-20
2.68849e-22
-9.76603e-20
2.69697e-22
-9.79302e-20
2.69592e-22
-9.81999e-20
2.70442e-22
-9.84705e-20
2.70335e-22
-9.87409e-20
2.71187e-22
-9.90123e-20
2.71077e-22
-9.92834e-20
2.71933e-22
-9.95556e-20
2.7182e-22
-9.98275e-20
2.72678e-22
-1.001e-19
2.72562e-22
-1.00373e-19
2.73423e-22
-1.00647e-19
2.73305e-22
-1.0092e-19
2.74168e-22
-1.01194e-19
2.74047e-22
-1.01468e-19
2.74913e-22
-1.01744e-19
2.7479e-22
-1.02018e-19
2.75658e-22
-1.02294e-19
2.75532e-22
-1.0257e-19
2.76403e-22
-1.02846e-19
2.76275e-22
-1.03123e-19
2.77148e-22
-1.034e-19
2.77017e-22
-1.03677e-19
2.77893e-22
-1.03955e-19
2.7776e-22
-1.04233e-19
2.78638e-22
-1.04512e-19
2.78502e-22
-1.0479e-19
2.79383e-22
-1.0507e-19
2.79245e-22
-1.05349e-19
2.80129e-22
-1.0563e-19
2.79987e-22
-1.0591e-19
2.80874e-22
-1.06191e-19
2.8073e-22
-1.06472e-19
2.81619e-22
-1.06753e-19
2.81472e-22
-1.07035e-19
2.82364e-22
-1.07317e-19
2.82215e-22
-1.076e-19
2.83109e-22
-1.07883e-19
2.82957e-22
-1.08166e-19
2.83854e-22
-1.0845e-19
2.837e-22
-1.08734e-19
2.84599e-22
-1.09019e-19
2.84442e-22
-1.09303e-19
2.85344e-22
-1.09589e-19
2.85185e-22
-1.09874e-19
2.8609e-22
-1.1016e-19
2.85927e-22
-1.10446e-19
2.86835e-22
-1.10733e-19
2.8667e-22
-1.1102e-19
2.8758e-22
-1.11308e-19
2.87412e-22
-1.11595e-19
2.88325e-22
-1.11884e-19
2.88155e-22
-1.12172e-19
2.8907e-22
-1.12461e-19
2.88897e-22
-1.1275e-19
2.89815e-22
-1.1304e-19
2.8964e-22
-1.1333e-19
2.9056e-22
-1.1362e-19
2.90382e-22
-1.13911e-19
2.91306e-22
-1.14202e-19
2.91125e-22
-1.14494e-19
2.92051e-22
-1.14786e-19
2.91867e-22
-1.15078e-19
2.92796e-22
-1.15371e-19
2.9261e-22
-1.15663e-19
2.93541e-22
-1.15957e-19
2.93352e-22
-1.1625e-19
2.94286e-22
-1.16545e-19
2.94095e-22
-1.16839e-19
2.95031e-22
-1.17134e-19
2.94837e-22
-1.17429e-19
2.95777e-22
-1.17725e-19
2.9558e-22
-1.18021e-19
2.96522e-22
-1.18317e-19
2.96322e-22
-1.18614e-19
2.97267e-22
-1.18911e-19
2.97065e-22
-1.19208e-19
2.98012e-22
-1.19507e-19
2.97807e-22
-1.19804e-19
2.98757e-22
-1.20103e-19
2.98549e-22
-1.20402e-19
2.99503e-22
-1.20702e-19
2.99292e-22
-1.21001e-19
3.00248e-22
-1.21301e-19
3.00034e-22
-1.21601e-19
3.00993e-22
-1.21903e-19
3.00777e-22
-1.22203e-19
3.01738e-22
-1.22505e-19
3.01519e-22
-1.22807e-19
3.02483e-22
-1.2311e-19
3.02262e-22
-1.23412e-19
3.03229e-22
-1.23715e-19
3.03004e-22
-1.24018e-19
3.03974e-22
-1.24322e-19
3.03746e-22
-1.24626e-19
3.04719e-22
-1.24931e-19
3.04489e-22
-1.25236e-19
3.05464e-22
-1.25541e-19
3.05231e-22
-1.25847e-19
3.06209e-22
-1.26153e-19
3.05974e-22
-1.26459e-19
3.06955e-22
-1.26766e-19
3.06716e-22
-1.27073e-19
3.077e-22
-1.27381e-19
3.07458e-22
-1.27688e-19
3.08445e-22
-1.27997e-19
3.08201e-22
-1.28305e-19
3.0919e-22
-1.28614e-19
3.08943e-22
-1.28923e-19
3.09936e-22
-1.29233e-19
3.09686e-22
-1.29543e-19
3.10681e-22
-1.29854e-19
3.10428e-22
-1.30164e-19
3.11426e-22
-1.30476e-19
3.1117e-22
-1.30787e-19
3.12171e-22
-1.311e-19
3.11913e-22
-1.31412e-19
3.12917e-22
-1.31725e-19
3.12655e-22
-1.32037e-19
3.13662e-22
-1.32351e-19
3.13398e-22
-1.32665e-19
3.14407e-22
-1.32979e-19
3.1414e-22
-1.33293e-19
3.15152e-22
-1.33609e-19
3.14882e-22
-1.33924e-19
3.15898e-22
-1.3424e-19
3.15625e-22
-1.34555e-19
3.16643e-22
-1.34872e-19
3.16367e-22
-1.35188e-19
3.17388e-22
-1.35506e-19
3.1711e-22
-1.35823e-19
3.18133e-22
-1.36141e-19
3.17852e-22
-1.36459e-19
3.18879e-22
-1.36778e-19
3.18594e-22
-1.37097e-19
3.19624e-22
-1.37417e-19
3.19337e-22
-1.37736e-19
3.20369e-22
-1.38057e-19
3.20079e-22
-1.38377e-19
3.21115e-22
-1.38698e-19
3.20821e-22
-1.39019e-19
3.2186e-22
-1.39341e-19
3.21564e-22
-1.39662e-19
3.22605e-22
-1.39985e-19
3.22306e-22
-1.40308e-19
3.2335e-22
-1.40631e-19
3.23048e-22
-1.40954e-19
3.24096e-22
-1.41278e-19
3.23791e-22
-1.41602e-19
3.24841e-22
-1.41927e-19
3.24533e-22
-1.42252e-19
3.25586e-22
-1.42577e-19
3.25275e-22
-1.42903e-19
3.26332e-22
-1.43229e-19
3.26018e-22
-1.43555e-19
3.27077e-22
-1.43883e-19
3.2676e-22
-1.44209e-19
3.27822e-22
-1.44537e-19
3.27502e-22
-1.44865e-19
3.28568e-22
-1.45194e-19
3.28245e-22
-1.45522e-19
3.29313e-22
-1.45851e-19
3.28987e-22
-1.4618e-19
3.30058e-22
-1.4651e-19
3.29729e-22
-1.4684e-19
3.30804e-22
-1.47171e-19
3.30472e-22
-1.47502e-19
3.31549e-22
-1.47833e-19
3.31214e-22
-1.48165e-19
3.32294e-22
-1.48497e-19
3.31956e-22
-1.48829e-19
3.33039e-22
-1.49162e-19
3.32698e-22
-1.49495e-19
3.33785e-22
-1.49829e-19
3.33441e-22
-1.50162e-19
3.3453e-22
-1.50497e-19
3.34183e-22
-1.50831e-19
3.35275e-22
-1.51167e-19
3.34925e-22
-1.51501e-19
3.36021e-22
-1.51838e-19
3.35668e-22
-1.52173e-19
3.36766e-22
-1.5251e-19
3.3641e-22
-1.52847e-19
3.37512e-22
-1.53184e-19
3.37152e-22
-1.53521e-19
3.38257e-22
-1.5386e-19
3.37895e-22
-1.54198e-19
3.39002e-22
-1.54537e-19
3.38637e-22
-1.54876e-19
3.39748e-22
-1.55215e-19
3.39379e-22
-1.55555e-19
3.40493e-22
-1.55896e-19
3.40121e-22
-1.56236e-19
3.41238e-22
-1.56577e-19
3.40864e-22
-1.56918e-19
3.41984e-22
-1.5726e-19
3.41606e-22
-1.57602e-19
3.42729e-22
-1.57944e-19
3.42348e-22
-1.58287e-19
3.43475e-22
-1.5863e-19
3.43091e-22
-1.58974e-19
3.4422e-22
-1.59318e-19
3.43833e-22
-1.59662e-19
3.44965e-22
-1.60007e-19
3.44575e-22
-1.60351e-19
3.45711e-22
-1.60697e-19
3.45317e-22
-1.61043e-19
3.46456e-22
-1.61389e-19
3.4606e-22
-1.61735e-19
3.47202e-22
-1.62083e-19
3.46802e-22
-1.62429e-19
3.47947e-22
-1.62777e-19
3.47544e-22
-1.63125e-19
3.48692e-22
-1.63474e-19
3.48286e-22
-1.63822e-19
3.49438e-22
-1.64172e-19
3.49029e-22
-1.64521e-19
3.50183e-22
-1.64871e-19
3.49771e-22
-1.65221e-19
3.50929e-22
-1.65572e-19
3.50513e-22
-1.65922e-19
3.51674e-22
-1.66274e-19
3.51255e-22
-1.66625e-19
3.5242e-22
-1.66978e-19
3.51997e-22
-1.6733e-19
3.53165e-22
-1.67683e-19
3.5274e-22
-1.68036e-19
3.5391e-22
-1.6839e-19
3.53482e-22
-1.68744e-19
3.54656e-22
-1.69098e-19
3.54224e-22
-1.69453e-19
3.55401e-22
-1.69808e-19
3.54966e-22
-1.70163e-19
3.56147e-22
-1.70519e-19
3.55708e-22
-1.70875e-19
3.56892e-22
-1.71232e-19
3.56451e-22
-1.71588e-19
3.57638e-22
-1.71946e-19
3.57193e-22
-1.72303e-19
3.58383e-22
-1.72662e-19
3.57935e-22
-1.7302e-19
3.59129e-22
-1.73379e-19
3.58677e-22
-1.73738e-19
3.59874e-22
-1.74098e-19
3.59419e-22
-1.74457e-19
3.60619e-22
-1.74818e-19
3.60162e-22
-1.75178e-19
3.61365e-22
-1.7554e-19
3.60904e-22
-1.759e-19
3.6211e-22
-1.76263e-19
3.61646e-22
-1.76624e-19
3.62856e-22
-1.76987e-19
3.62388e-22
-1.7735e-19
3.63601e-22
-1.77713e-19
3.6313e-22
-1.78077e-19
3.64347e-22
-1.78441e-19
3.63873e-22
-1.78805e-19
3.65092e-22
-1.7917e-19
3.64615e-22
-1.79535e-19
3.65838e-22
-1.79901e-19
3.65357e-22
-1.80266e-19
3.66583e-22
-1.80633e-19
3.66099e-22
-1.80999e-19
3.67329e-22
-1.81366e-19
3.66841e-22
-1.81733e-19
3.68074e-22
-1.82101e-19
3.67583e-22
-1.82469e-19
3.6882e-22
-1.82838e-19
3.68325e-22
-1.83206e-19
3.69565e-22
-1.83576e-19
3.69068e-22
-1.83945e-19
3.70311e-22
-1.84315e-19
3.6981e-22
-1.84685e-19
3.71056e-22
-1.85056e-19
3.70552e-22
-1.85427e-19
3.71802e-22
-1.85799e-19
3.71294e-22
-1.8617e-19
3.72547e-22
-1.86543e-19
3.72036e-22
-1.86915e-19
3.73293e-22
-1.87288e-19
3.72778e-22
-1.87661e-19
3.74039e-22
-1.88035e-19
3.7352e-22
-1.88408e-19
3.74784e-22
-1.88783e-19
3.74263e-22
-1.89157e-19
3.7553e-22
-1.89533e-19
3.75005e-22
-1.89908e-19
3.76275e-22
-1.90285e-19
3.75747e-22
-1.9066e-19
3.77021e-22
-1.91037e-19
3.76489e-22
-1.91414e-19
3.77766e-22
-1.91792e-19
3.77231e-22
-1.92169e-19
3.78512e-22
-1.92548e-19
3.77973e-22
-1.92925e-19
3.79257e-22
-1.93305e-19
3.78715e-22
-1.93684e-19
3.80003e-22
-1.94064e-19
3.79457e-22
-1.94443e-19
3.80748e-22
-1.94824e-19
3.80199e-22
-1.95204e-19
3.81494e-22
-1.95586e-19
3.80941e-22
-1.95967e-19
3.8224e-22
-1.96349e-19
3.81684e-22
-1.96731e-19
3.82985e-22
-1.97114e-19
3.82426e-22
-1.97496e-19
3.83731e-22
-1.9788e-19
3.83168e-22
-1.98263e-19
3.84476e-22
-1.98648e-19
3.8391e-22
-1.99032e-19
3.85222e-22
-1.99417e-19
3.84652e-22
-1.99801e-19
3.85967e-22
-2.00188e-19
3.85394e-22
-2.00573e-19
3.86713e-22
-2.0096e-19
3.86136e-22
-2.01346e-19
3.87459e-22
-2.01733e-19
3.86878e-22
-2.0212e-19
3.88204e-22
-2.02509e-19
3.8762e-22
-2.02896e-19
3.8895e-22
-2.03285e-19
3.88362e-22
-2.03674e-19
3.89695e-22
-2.04063e-19
3.89104e-22
-2.04452e-19
3.90441e-22
-2.04843e-19
3.89846e-22
-2.05233e-19
3.91187e-22
-2.05624e-19
3.90588e-22
-2.06015e-19
3.91932e-22
-2.06407e-19
3.9133e-22
-2.06798e-19
3.92678e-22
-2.07191e-19
3.92073e-22
-2.07583e-19
3.93423e-22
-2.07976e-19
3.92815e-22
-2.08369e-19
3.94169e-22
-2.08763e-19
3.93557e-22
-2.09157e-19
3.94915e-22
-2.09552e-19
3.94299e-22
-2.09946e-19
3.9566e-22
-2.10342e-19
3.95041e-22
-2.10737e-19
3.96406e-22
-2.11133e-19
3.95783e-22
-2.11529e-19
3.97152e-22
-2.11926e-19
3.96525e-22
-2.12323e-19
3.97897e-22
-2.12721e-19
3.97267e-22
-2.13118e-19
3.98643e-22
-2.13517e-19
3.98009e-22
-2.13915e-19
3.99389e-22
-2.14314e-19
3.98751e-22
-2.14713e-19
4.00134e-22
-2.15113e-19
3.99493e-22
-2.15513e-19
4.0088e-22
-2.15914e-19
4.00235e-22
-2.16314e-19
4.01626e-22
-2.16715e-19
4.00977e-22
-2.17116e-19
4.02371e-22
-2.17519e-19
4.01719e-22
-2.1792e-19
4.03117e-22
-2.18324e-19
4.02461e-22
-2.18726e-19
4.03863e-22
-2.1913e-19
4.03203e-22
-2.19533e-19
4.04608e-22
-2.19938e-19
4.03945e-22
-2.20342e-19
4.05354e-22
-2.20747e-19
4.04687e-22
-2.21152e-19
4.061e-22
-2.21558e-19
4.05429e-22
-2.21963e-19
4.06845e-22
-2.2237e-19
4.06171e-22
-2.22777e-19
4.07591e-22
-2.23184e-19
4.06913e-22
-2.23591e-19
4.08337e-22
-2.24e-19
4.07655e-22
-2.24407e-19
4.09082e-22
-2.24816e-19
4.08397e-22
-2.25225e-19
4.09828e-22
-2.25635e-19
4.09139e-22
-2.26044e-19
4.10574e-22
-2.26454e-19
4.09881e-22
-2.26864e-19
4.11319e-22
-2.27276e-19
4.10622e-22
-2.27686e-19
4.12065e-22
-2.28098e-19
4.11364e-22
-2.28509e-19
4.12811e-22
-2.28922e-19
4.12106e-22
-2.29334e-19
4.13557e-22
-2.29748e-19
4.12848e-22
-2.30161e-19
4.14302e-22
-2.30575e-19
4.1359e-22
-2.30989e-19
4.15048e-22
-2.31404e-19
4.14332e-22
-2.31818e-19
4.15794e-22
-2.32234e-19
4.15074e-22
-2.32649e-19
4.16539e-22
-2.33066e-19
4.15816e-22
-2.33481e-19
4.17285e-22
-2.33899e-19
4.16558e-22
-2.34315e-19
4.18031e-22
-2.34733e-19
4.173e-22
-2.35151e-19
4.18777e-22
-2.3557e-19
4.18042e-22
-2.35987e-19
4.19522e-22
-2.36407e-19
4.18784e-22
-2.36826e-19
4.20268e-22
-2.37246e-19
4.19526e-22
-2.37666e-19
4.21014e-22
-2.38087e-19
4.20268e-22
-2.38507e-19
4.2176e-22
-2.38929e-19
4.21009e-22
-2.3935e-19
4.22505e-22
-2.39772e-19
4.21751e-22
-2.40194e-19
4.23251e-22
-2.40617e-19
4.22493e-22
-2.4104e-19
4.23997e-22
-2.41464e-19
4.23235e-22
-2.41887e-19
4.24743e-22
-2.42312e-19
4.23977e-22
-2.42736e-19
4.25488e-22
-2.43161e-19
4.24719e-22
-2.43586e-19
4.26234e-22
-2.44012e-19
4.25461e-22
-2.44438e-19
4.2698e-22
-2.44865e-19
4.26203e-22
-2.45291e-19
4.27726e-22
-2.45719e-19
4.26945e-22
-2.46145e-19
4.28472e-22
-2.46574e-19
4.27687e-22
-2.47002e-19
4.29217e-22
-2.47431e-19
4.28428e-22
-2.47859e-19
4.29963e-22
-2.48289e-19
4.2917e-22
-2.48718e-19
4.30709e-22
-2.49149e-19
4.29912e-22
-2.49579e-19
4.31455e-22
-2.50011e-19
4.30654e-22
-2.50441e-19
4.322e-22
-2.50873e-19
4.31396e-22
-2.51305e-19
4.32946e-22
-2.51738e-19
4.32138e-22
-2.5217e-19
4.33692e-22
-2.52604e-19
4.3288e-22
-2.53036e-19
4.34438e-22
-2.53471e-19
4.33622e-22
-2.53904e-19
4.35184e-22
-2.5434e-19
4.34363e-22
-2.54774e-19
4.3593e-22
-2.5521e-19
4.35105e-22
-2.55645e-19
4.36675e-22