/*--------------------------------*- C++ -*----------------------------------*\
| =========                 |                                                 |
| \\      /  F ield         | OpenFOAM: The Open Source CFD Toolbox           |
|  \\    /   O peration     | Version:  2206                                  |
|   \\  /    A nd           | Website:  www.openfoam.com                      |
|    \\/     M anipulation  |                                                 |
\*---------------------------------------------------------------------------*/
FoamFile
{
    version     2.0;
    format      ascii;
    arch        "LSB;label=32;scalar=64";
    class       volScalarField;
    location    "8000";
    object      p;
}
// * * * * * * * * * * * * * * * * * * * * * * * * * * * * * * * * * * * * * //

dimensions      [0 2 -2 0 0 0 0];

internalField   nonuniform List<scalar> 
100
(
-1.42018019e-09
0.0390826147
0.0575132889
0.0751497633
0.0890107147
0.100562425
0.110216851
0.118378821
0.125341424
0.131330052
0.13651943
0.141046779
0.145021059
0.148529681
0.151643423
0.154420089
0.156907264
0.159144405
0.161164457
0.162995097
0.164659718
0.166178199
0.16756752
0.168842259
0.170014984
0.17109658
0.172096512
0.173023042
0.173883408
0.174683973
0.175430348
0.1761275
0.176779834
0.177391271
0.177965308
0.178505077
0.179013383
0.17949275
0.17994545
0.180373537
0.180778868
0.181163125
0.181527839
0.181874402
0.182204083
0.18251804
0.182817333
0.183102935
0.183375735
0.183636555
0.183886147
0.184125206
0.184354373
0.184574242
0.184785361
0.184988237
0.185183342
0.185371113
0.185551957
0.185726253
0.185894353
0.186056587
0.18621326
0.18636466
0.186511056
0.186652699
0.186789824
0.186922652
0.187051389
0.187176232
0.187297363
0.187414954
0.187529167
0.187640156
0.187748065
0.187853029
0.187955177
0.188054631
0.188151505
0.188245908
0.188337943
0.188427708
0.188515295
0.188600792
0.188684283
0.188765845
0.188845555
0.188923484
0.1889997
0.189074267
0.189147249
0.189218704
0.189288691
0.18935724
0.189424356
0.18949018
0.189555471
0.189621017
0.189681437
0.189716425
)
;

boundaryField
{
    left
    {
        type            wedge;
    }
    right
    {
        type            wedge;
    }
    outerWall
    {
        type            zeroGradient;
    }
    innerWall
    {
        type            zeroGradient;
    }
    frontAndBack
    {
        type            empty;
    }
}


// ************************************************************************* //
