/*--------------------------------*- C++ -*----------------------------------*\
| =========                 |                                                 |
| \\      /  F ield         | OpenFOAM: The Open Source CFD Toolbox           |
|  \\    /   O peration     | Version:  2206                                  |
|   \\  /    A nd           | Website:  www.openfoam.com                      |
|    \\/     M anipulation  |                                                 |
\*---------------------------------------------------------------------------*/
FoamFile
{
    version     2.0;
    format      ascii;
    arch        "LSB;label=32;scalar=64";
    class       surfaceScalarField;
    location    "8000";
    object      phi;
}
// * * * * * * * * * * * * * * * * * * * * * * * * * * * * * * * * * * * * * //

dimensions      [0 3 -1 0 0 0 0];

oriented        oriented;

internalField   nonuniform List<scalar> 
99
(
3.43094933e-10
6.59688158e-10
9.53246741e-10
1.22699039e-09
1.48344397e-09
1.7246971e-09
1.95247138e-09
2.16822539e-09
2.37318138e-09
2.56840124e-09
2.75478141e-09
2.93312124e-09
3.10409518e-09
3.26832211e-09
3.42631952e-09
3.57857904e-09
3.72550383e-09
3.867493e-09
4.00486421e-09
4.13794854e-09
4.26699792e-09
4.39229228e-09
4.51403218e-09
4.63245871e-09
4.74773144e-09
4.86006157e-09
4.96957524e-09
5.07646076e-09
5.1808167e-09
5.28281333e-09
5.38252618e-09
5.48011163e-09
5.57562552e-09
5.66921337e-09
5.76091411e-09
5.85086481e-09
5.93908975e-09
6.02571945e-09
6.11076521e-09
6.1943526e-09
6.27648148e-09
6.35727363e-09
6.43671861e-09
6.51493549e-09
6.59190454e-09
6.66774288e-09
6.74242239e-09
6.81605887e-09
6.88861651e-09
6.96021036e-09
7.03079762e-09
7.1004929e-09
7.16924694e-09
7.23717437e-09
7.30421998e-09
7.37049856e-09
7.43594938e-09
7.50068774e-09
7.56464788e-09
7.6279455e-09
7.69051014e-09
7.75245827e-09
7.81371519e-09
7.87439783e-09
7.9344275e-09
7.99392206e-09
8.05279927e-09
8.11117733e-09
8.16897096e-09
8.22629872e-09
8.28307229e-09
8.33941154e-09
8.39522427e-09
8.45063279e-09
8.5055398e-09
8.56007103e-09
8.61412309e-09
8.66782643e-09
8.7210713e-09
8.77399211e-09
8.82647396e-09
8.87865417e-09
8.93041567e-09
8.98189457e-09
9.03297464e-09
9.08378947e-09
9.13422818e-09
9.18441482e-09
9.23424364e-09
9.28383194e-09
9.33309321e-09
9.38211548e-09
9.4308417e-09
9.47933389e-09
9.52756387e-09
9.5755592e-09
9.62331566e-09
9.67084049e-09
9.71813771e-09
)
;

boundaryField
{
    left
    {
        type            wedge;
        value           nonuniform List<scalar> 
100
(
1.34137761e-05
1.23777449e-05
1.14772456e-05
1.07024521e-05
1.00265643e-05
9.43215553e-06
8.90530723e-06
8.43519501e-06
8.01319489e-06
7.63234324e-06
7.2869573e-06
6.97235353e-06
6.68463755e-06
6.42054549e-06
6.17732082e-06
5.95261918e-06
5.74443524e-06
5.55104268e-06
5.37094723e-06
5.20284994e-06
5.0456154e-06
4.89824677e-06
4.75986615e-06
4.62969655e-06
4.50704775e-06
4.39130535e-06
4.28191986e-06
4.17839836e-06
4.08029811e-06
3.98721967e-06
3.89880164e-06
3.81471703e-06
3.73466851e-06
3.65838515e-06
3.58562021e-06
3.51614787e-06
3.44976102e-06
3.38627003e-06
3.32550022e-06
3.26729087e-06
3.2114934e-06
3.15797095e-06
3.10659664e-06
3.05725267e-06
3.00983011e-06
2.96422751e-06
2.92035029e-06
2.87811066e-06
2.83742655e-06
2.79822113e-06
2.76042288e-06
2.7239647e-06
2.68878351e-06
2.65482049e-06
2.62202021e-06
2.59033043e-06
2.5597023e-06
2.53008966e-06
2.50144885e-06
2.47373899e-06
2.44692132e-06
2.42095906e-06
2.39581774e-06
2.37146453e-06
2.34786843e-06
2.32499985e-06
2.30283105e-06
2.28133553e-06
2.26048797e-06
2.2402646e-06
2.22064268e-06
2.20160042e-06
2.18311734e-06
2.1651738e-06
2.14775095e-06
2.13083105e-06
2.11439707e-06
2.09843259e-06
2.08292218e-06
2.06785099e-06
2.05320466e-06
2.0389697e-06
2.02513311e-06
2.01168226e-06
1.99860533e-06
1.98589085e-06
1.97352771e-06
1.96150548e-06
1.94981399e-06
1.93844355e-06
1.9273847e-06
1.91662857e-06
1.90616654e-06
1.89599017e-06
1.88609158e-06
1.87646309e-06
1.86709712e-06
1.85798671e-06
1.8491253e-06
1.84050599e-06
)
;
    }
    right
    {
        type            wedge;
        value           nonuniform List<scalar> 
100
(
-1.34141192e-05
-1.23780615e-05
-1.14775392e-05
-1.07027258e-05
-1.00268207e-05
-9.43239678e-06
-8.905535e-06
-8.43541076e-06
-8.01339985e-06
-7.63253846e-06
-7.28714368e-06
-6.97253186e-06
-6.68480853e-06
-6.42070971e-06
-6.17747883e-06
-5.95277143e-06
-5.74458217e-06
-5.55118467e-06
-5.37108461e-06
-5.20298301e-06
-5.04574445e-06
-4.89837205e-06
-4.7599879e-06
-4.62981497e-06
-4.50716303e-06
-4.39141766e-06
-4.28202938e-06
-4.17850523e-06
-4.08040248e-06
-3.98732165e-06
-3.89890137e-06
-3.8148146e-06
-3.73476403e-06
-3.65847872e-06
-3.58571192e-06
-3.51623781e-06
-3.44984926e-06
-3.38635664e-06
-3.32558528e-06
-3.26737444e-06
-3.21157555e-06
-3.15805173e-06
-3.1066761e-06
-3.05733087e-06
-3.00990709e-06
-2.96430333e-06
-2.92042498e-06
-2.87818427e-06
-2.83749913e-06
-2.7982927e-06
-2.76049348e-06
-2.72403437e-06
-2.68885228e-06
-2.65488839e-06
-2.62208728e-06
-2.59039668e-06
-2.55976777e-06
-2.53015438e-06
-2.50151283e-06
-2.47380226e-06
-2.44698391e-06
-2.42102098e-06
-2.39587902e-06
-2.37152518e-06
-2.34792848e-06
-2.32505932e-06
-2.30288995e-06
-2.28139388e-06
-2.26054579e-06
-2.2403219e-06
-2.22069948e-06
-2.20165673e-06
-2.18317318e-06
-2.16522918e-06
-2.14780588e-06
-2.13088556e-06
-2.11445116e-06
-2.09848626e-06
-2.08297546e-06
-2.06790388e-06
-2.05325717e-06
-2.03902186e-06
-2.02518491e-06
-2.01173371e-06
-1.99865645e-06
-1.98594165e-06
-1.97357819e-06
-1.96155565e-06
-1.94986386e-06
-1.93849313e-06
-1.92743399e-06
-1.91667759e-06
-1.90621529e-06
-1.89603866e-06
-1.88613982e-06
-1.87651108e-06
-1.86714487e-06
-1.85803423e-06
-1.8491726e-06
-1.84055306e-06
)
;
    }
    outerWall
    {
        type            calculated;
        value           uniform 9.76521326e-09;
    }
    innerWall
    {
        type            calculated;
        value           uniform 0;
    }
    frontAndBack
    {
        type            empty;
        value           nonuniform List<scalar> 0();
    }
}


// ************************************************************************* //
