/*--------------------------------*- C++ -*----------------------------------*\
| =========                 |                                                 |
| \\      /  F ield         | OpenFOAM: The Open Source CFD Toolbox           |
|  \\    /   O peration     | Version:  2206                                  |
|   \\  /    A nd           | Website:  www.openfoam.com                      |
|    \\/     M anipulation  |                                                 |
\*---------------------------------------------------------------------------*/
FoamFile
{
    version     2.0;
    format      ascii;
    arch        "LSB;label=32;scalar=64";
    class       volVectorField;
    location    "8000";
    object      U;
}
// * * * * * * * * * * * * * * * * * * * * * * * * * * * * * * * * * * * * * //

dimensions      [0 1 -1 0 0 0 0];

internalField   nonuniform List<vector> 
100
(
(0.0121942372 0.596183077 0)
(-0.00387423967 0.550136065 0)
(0.000933145523 0.51011285 0)
(-0.000127235508 0.475676702 0)
(0.000106643801 0.445636477 0)
(9.10530875e-05 0.419217635 0)
(0.000109959158 0.395801555 0)
(0.000121250921 0.374907144 0)
(0.000130762709 0.356151104 0)
(0.000138413892 0.339223931 7.34811754e-20)
(0.000144615113 0.323873052 -7.75648407e-20)
(0.000149629517 0.309890304 0)
(0.000153672316 0.297102603 0)
(0.000156914122 0.285364878 8.70884362e-20)
(0.000159491681 0.27455461 0)
(0.000161515652 0.264567621 0)
(0.000163076224 0.255314765 0)
(0.000164247412 0.246719315 0)
(0.000165090327 0.238714873 0)
(0.000165655727 0.231243691 0)
(0.00016598597 0.224255305 0)
(0.000166116592 0.217705426 0)
(0.000166077517 0.211555019 0)
(0.000165894062 0.205769551 0)
(0.000165587711 0.200318358 0)
(0.00016517677 0.19517412 0)
(0.000164676867 0.190312414 0)
(0.000164101405 0.185711345 0)
(0.00016346189 0.181351222 0)
(0.000162768231 0.177214293 0)
(0.000162028974 0.173284506 0)
(0.000161251516 0.169547317 0)
(0.000160442253 0.16598951 0)
(0.000159606742 0.162599055 0)
(0.0001587498 0.159364975 0)
(0.000157875624 0.156277233 0)
(0.000156987859 0.153326635 0)
(0.000156089685 0.15050474 0)
(0.00015518387 0.147803791 0)
(0.000154272828 0.145216639 0)
(0.000153358662 0.142736692 0)
(0.000152443206 0.140357855 0)
(0.000151528059 0.138074491 0)
(0.00015061461 0.135881373 0)
(0.000149704069 0.133773649 0)
(0.000148797487 0.131746813 0)
(0.000147895773 0.129796667 0)
(0.000146999717 0.127919302 0)
(0.000146109997 0.12611107 0)
(0.000145227196 0.124368565 0)
(0.000144351815 0.1226886 0)
(0.000143484279 0.121068192 0)
(0.000142624947 0.119504547 0)
(0.000141774121 0.11799504 0)
(0.000140932053 0.116537211 0)
(0.000140098945 0.115128742 0)
(0.000139274965 0.113767457 0)
(0.00013846024 0.112451304 0)
(0.000137654872 0.111178349 0)
(0.000136858928 0.109946768 0)
(0.000136072457 0.108754839 0)
(0.000135295481 0.107600933 0)
(0.00013452801 0.106483513 0)
(0.000133770029 0.10540112 0)
(0.000133021515 0.104352375 0)
(0.000132282427 0.10333597 0)
(0.00013155272 0.102350665 7.40628002e-20)
(0.000130832329 0.101395282 0)
(0.000130121191 0.100468702 0)
(0.000129419225 0.099569863 0)
(0.000128726351 0.0986977532 0)
(0.000128042481 0.0978514108 7.08621554e-20)
(0.000127367522 0.0970299196 0)
(0.000126701383 0.0962324066 0)
(0.000126043959 0.0954580398 0)
(0.000125395153 0.0947060253 -6.84447027e-20)
(0.000124754849 0.0939756054 0)
(0.000124122951 0.0932660566 0)
(0.000123499337 0.0925766877 0)
(0.000122883905 0.0919068378 0)
(0.000122276532 0.0912558749 0)
(0.000121677113 0.0906231941 0)
(0.000121085535 0.0900082166 0)
(0.000120501683 0.0894103877 -6.39805183e-20)
(0.000119925444 0.0888291759 0)
(0.000119356709 0.0882640718 0)
(0.000118795401 0.0877145866 0)
(0.000118241415 0.0871802516 6.19243753e-20)
(0.000117694533 0.0866606164 0)
(0.000117154207 0.0861552489 0)
(0.000116620445 0.0856637336 0)
(0.00011609747 0.0851856714 5.99779027e-20)
(0.000115595314 0.0847206784 0)
(0.00011509295 0.0842683854 0)
(0.000114439114 0.0838284372 0)
(0.000113485961 0.0834004912 5.81349327e-20)
(0.000113412887 0.0829842172 0)
(0.000118522692 0.0825792998 0)
(0.000127038562 0.0821854476 0)
(9.24618271e-05 0.0818023588 0)
)
;

boundaryField
{
    left
    {
        type            wedge;
    }
    right
    {
        type            wedge;
    }
    outerWall
    {
        type            navierSlip;
        value           uniform (0 0.0816190206 0);
        slipLength      uniform 1;
        wallVelocity    uniform (0 0 0);
    }
    innerWall
    {
        type            rotatingWallVelocity;
        origin          (0 0 0);
        axis            (0 0 1);
        omega           constant 12.566;
        value           uniform (0 0.628204307 -0);
    }
    frontAndBack
    {
        type            empty;
    }
}


// ************************************************************************* //
