/*--------------------------------*- C++ -*----------------------------------*\
| =========                 |                                                 |
| \\      /  F ield         | OpenFOAM: The Open Source CFD Toolbox           |
|  \\    /   O peration     | Version:  2206                                  |
|   \\  /    A nd           | Website:  www.openfoam.com                      |
|    \\/     M anipulation  |                                                 |
\*---------------------------------------------------------------------------*/
FoamFile
{
    version     2.0;
    format      ascii;
    arch        "LSB;label=32;scalar=64";
    class       volScalarField;
    location    "450";
    object      p;
}
// * * * * * * * * * * * * * * * * * * * * * * * * * * * * * * * * * * * * * //

dimensions      [0 2 -2 0 0 0 0];

internalField   nonuniform List<scalar> 
100000
(
-3.79166e-10
9.93482e-09
1.43595e-08
2.37503e-08
3.44086e-08
4.82934e-08
5.60799e-08
7.21679e-08
8.62839e-08
1.07543e-07
1.26713e-07
1.45382e-07
1.69168e-07
1.93477e-07
2.22644e-07
2.51938e-07
2.7873e-07
3.12797e-07
3.45111e-07
3.84801e-07
4.21873e-07
4.59538e-07
5.01011e-07
5.44753e-07
5.91271e-07
6.41095e-07
6.92129e-07
7.3999e-07
7.95503e-07
8.49289e-07
9.10112e-07
9.69052e-07
1.02739e-06
1.09127e-06
1.15517e-06
1.22467e-06
1.29346e-06
1.36069e-06
1.43427e-06
1.50719e-06
1.58629e-06
1.66419e-06
1.74095e-06
1.82371e-06
1.9061e-06
1.99443e-06
2.08176e-06
2.16778e-06
2.25996e-06
2.35162e-06
2.44936e-06
2.54597e-06
2.64141e-06
2.74287e-06
2.84395e-06
2.95095e-06
3.057e-06
3.16168e-06
3.27262e-06
3.38289e-06
3.49943e-06
3.61461e-06
3.7289e-06
3.84888e-06
3.96887e-06
4.09433e-06
4.21938e-06
4.3424e-06
4.47248e-06
4.60093e-06
4.73681e-06
4.86992e-06
5.00384e-06
5.14142e-06
5.28145e-06
5.4241e-06
5.57023e-06
5.71739e-06
5.86156e-06
6.0133e-06
6.16335e-06
6.32046e-06
6.47562e-06
6.63028e-06
6.79044e-06
6.95062e-06
7.11644e-06
7.28149e-06
7.44506e-06
7.61494e-06
7.78418e-06
7.95961e-06
8.13381e-06
8.3069e-06
8.48601e-06
8.6647e-06
8.84941e-06
9.03302e-06
9.21544e-06
9.40391e-06
9.59197e-06
9.78601e-06
9.97903e-06
1.01707e-05
1.03687e-05
1.0566e-05
1.07695e-05
1.09717e-05
1.1173e-05
1.138e-05
1.1587e-05
1.17995e-05
1.20115e-05
1.22216e-05
1.24387e-05
1.26541e-05
1.28771e-05
1.30972e-05
1.33181e-05
1.35427e-05
1.37698e-05
1.39994e-05
1.42326e-05
1.44668e-05
1.4698e-05
1.49368e-05
1.51738e-05
1.5418e-05
1.56602e-05
1.59019e-05
1.61491e-05
1.63963e-05
1.66491e-05
1.69012e-05
1.71518e-05
1.74087e-05
1.7665e-05
1.79275e-05
1.81887e-05
1.84488e-05
1.8715e-05
1.89807e-05
1.92525e-05
1.95231e-05
1.97925e-05
2.00681e-05
2.03432e-05
2.06243e-05
2.09043e-05
2.11831e-05
2.1468e-05
2.17525e-05
2.20429e-05
2.23323e-05
2.26204e-05
2.29147e-05
2.32084e-05
2.35084e-05
2.3807e-05
2.41047e-05
2.44081e-05
2.47115e-05
2.50204e-05
2.53288e-05
2.56353e-05
2.59488e-05
2.62607e-05
2.658e-05
2.68965e-05
2.72139e-05
2.75349e-05
2.78583e-05
2.81844e-05
2.8514e-05
2.88446e-05
2.91722e-05
2.95074e-05
2.98409e-05
3.01814e-05
3.052e-05
3.08581e-05
3.12017e-05
3.15453e-05
3.18946e-05
3.22431e-05
3.25901e-05
3.29434e-05
3.32961e-05
3.3655e-05
3.40126e-05
3.43692e-05
3.47317e-05
3.50939e-05
3.54621e-05
3.58291e-05
3.6195e-05
3.65669e-05
3.69384e-05
3.73159e-05
3.76924e-05
3.80676e-05
3.84489e-05
3.88297e-05
3.92167e-05
3.96023e-05
3.99871e-05
4.03775e-05
4.0768e-05
4.1164e-05
4.15595e-05
4.1953e-05
4.23535e-05
4.27525e-05
4.31589e-05
4.35624e-05
4.39668e-05
4.43749e-05
4.47854e-05
4.51985e-05
4.56152e-05
4.60328e-05
4.64475e-05
4.68697e-05
4.72903e-05
4.77179e-05
4.81435e-05
4.85687e-05
4.89994e-05
4.943e-05
4.98664e-05
5.03019e-05
5.0736e-05
5.11764e-05
5.16161e-05
5.20621e-05
5.25067e-05
5.29504e-05
5.34e-05
5.38492e-05
5.43044e-05
5.47585e-05
5.52114e-05
5.56705e-05
5.6129e-05
5.65936e-05
5.7057e-05
5.75194e-05
5.79877e-05
5.84556e-05
5.89295e-05
5.94024e-05
5.9874e-05
6.03518e-05
6.0829e-05
6.13124e-05
6.17945e-05
6.22757e-05
6.27625e-05
6.32494e-05
6.37418e-05
6.42337e-05
6.47236e-05
6.52206e-05
6.5716e-05
6.62188e-05
6.67187e-05
6.72196e-05
6.77241e-05
6.8231e-05
6.87406e-05
6.92536e-05
6.97677e-05
7.02788e-05
7.07974e-05
7.13144e-05
7.18384e-05
7.23605e-05
7.28821e-05
7.34092e-05
7.39363e-05
7.4469e-05
7.5001e-05
7.55315e-05
7.60683e-05
7.66045e-05
7.71468e-05
7.76879e-05
7.8228e-05
7.8774e-05
7.93196e-05
7.98713e-05
8.04218e-05
8.09712e-05
8.15266e-05
8.20816e-05
8.26425e-05
8.32025e-05
8.37611e-05
8.4326e-05
8.48902e-05
8.54607e-05
8.60298e-05
8.65981e-05
8.7172e-05
8.7746e-05
8.83254e-05
8.89044e-05
8.94814e-05
9.00654e-05
9.06478e-05
9.12377e-05
9.18247e-05
9.24126e-05
9.30042e-05
9.35982e-05
9.41948e-05
9.47949e-05
9.5396e-05
9.59942e-05
9.65999e-05
9.72039e-05
9.7815e-05
9.84242e-05
9.90328e-05
9.96469e-05
0.000100261
0.000100881
0.0001015
0.000102118
0.000102741
0.000103365
0.000103994
0.000104622
0.000105249
0.000105882
0.000106515
0.000107154
0.000107791
0.000108428
0.00010907
0.000109712
0.00011036
0.000111007
0.000111653
0.000112305
0.000112956
0.000113614
0.00011427
0.000114925
0.000115587
0.000116247
0.000116914
0.00011758
0.000118244
0.000118915
0.000119585
0.000120261
0.000120936
0.00012161
0.00012229
0.000122969
0.000123655
0.000124339
0.000125023
0.000125711
0.000126402
0.000127095
0.000127791
0.000128489
0.000129183
0.000129885
0.000130586
0.000131293
0.000131999
0.000132704
0.000133415
0.000134125
0.000134841
0.000135557
0.000136271
0.000136991
0.000137711
0.000138437
0.000139161
0.000139885
0.000140614
0.000141343
0.000142078
0.000142812
0.000143545
0.000144284
0.000145023
0.000145767
0.000146511
0.000147253
0.000148001
0.000148749
0.000149503
0.000150255
0.000151007
0.000151765
0.000152522
0.000153285
0.000154047
0.000154808
0.000155575
0.000156341
0.000157115
0.000157885
0.000158657
0.000159432
0.000160209
0.000160989
0.000161773
0.000162557
0.000163339
0.000164128
0.000164916
0.00016571
0.000166503
0.000167295
0.000168093
0.00016889
0.000169694
0.000170496
0.000171297
0.000172105
0.000172911
0.000173724
0.000174536
0.000175346
0.000176163
0.000176979
0.000177801
0.000178623
0.000179442
0.000180268
0.000181094
0.000181926
0.000182756
0.000183585
0.000184421
0.000185255
0.000186096
0.000186936
0.000187775
0.00018862
0.000189464
0.000190314
0.000191163
0.000192011
0.000192865
0.000193719
0.000194578
0.000195437
0.000196294
0.000197158
0.00019802
0.00019889
0.000199757
0.000200625
0.000201496
0.00020237
0.000203247
0.000204127
0.000205008
0.000205886
0.000206772
0.000207656
0.000208547
0.000209436
0.000210324
0.000211218
0.000212112
0.000213012
0.000213911
0.000214808
0.000215712
0.000216615
0.000217525
0.000218433
0.00021934
0.000220253
0.000221165
0.000222084
0.000223002
0.000223918
0.00022484
0.000225762
0.00022669
0.000227617
0.000228543
0.000229475
0.000230406
0.000231343
0.000232279
0.000233215
0.000234156
0.000235096
0.000236043
0.000236989
0.000237933
0.000238884
0.000239833
0.00024079
0.000241744
0.000242699
0.000243657
0.000244618
0.000245582
0.000246549
0.000247517
0.000248482
0.000249455
0.000250426
0.000251404
0.00025238
0.000253356
0.000254337
0.000255318
0.000256305
0.000257291
0.000258275
0.000259266
0.000260257
0.000261253
0.000262248
0.000263242
0.000264242
0.000265242
0.000266248
0.000267252
0.000268256
0.000269265
0.000270274
0.000271289
0.000272303
0.000273316
0.000274335
0.000275353
0.000276377
0.000277401
0.000278423
0.000279451
0.000280479
0.000281513
0.000282545
0.000283577
0.000284614
0.000285651
0.000286694
0.000287737
0.000288777
0.000289825
0.00029087
0.000291924
0.000292974
0.000294025
0.00029508
0.000296138
0.000297198
0.000298261
0.000299326
0.000300387
0.000301456
0.000302524
0.000303598
0.000304671
0.000305743
0.000306821
0.000307898
0.000308981
0.000310064
0.000311145
0.000312232
0.000313319
0.000314412
0.000315503
0.000316594
0.00031769
0.000318786
0.000319888
0.000320989
0.000322089
0.000323195
0.0003243
0.000325412
0.000326522
0.000327631
0.000328747
0.000329861
0.000330982
0.000332102
0.000333221
0.000334345
0.00033547
0.000336599
0.000337729
0.000338856
0.000339991
0.000341124
0.000342264
0.000343402
0.00034454
0.000345682
0.000346827
0.000347974
0.000349124
0.000350276
0.000351424
0.000352581
0.000353735
0.000354897
0.000356056
0.000357215
0.00035838
0.000359545
0.000360715
0.000361884
0.000363052
0.000364227
0.0003654
0.00036658
0.000367759
0.000368937
0.00037012
0.000371303
0.000372492
0.000373681
0.000374867
0.00037606
0.000377253
0.000378451
0.000379649
0.000380845
0.000382047
0.000383249
0.000384457
0.000385664
0.00038687
0.000388081
0.000389292
0.00039051
0.000391726
0.000392941
0.000394162
0.000395383
0.000396609
0.000397835
0.000399059
0.00040029
0.000401519
0.000402756
0.00040399
0.000405225
0.000406463
0.000407704
0.000408947
0.000410194
0.000411442
0.000412688
0.00041394
0.000415191
0.000416449
0.000417705
0.000418961
0.000420222
0.000421483
0.000422749
0.000424015
0.00042528
0.000426551
0.000427821
0.000429097
0.000430372
0.000431646
0.000432926
0.000434206
0.000435491
0.000436776
0.000438059
0.000439348
0.000440637
0.000441932
0.000443226
0.000444519
0.000445818
0.000447116
0.00044842
0.000449723
0.000451026
0.000452334
0.000453641
0.000454955
0.000456268
0.000457579
0.000458897
0.000460213
0.000461537
0.000462858
0.00046418
0.000465505
0.000466833
0.000468164
0.000469498
0.000470833
0.000472165
0.000473505
0.000474843
0.000476188
0.000477531
0.000478874
0.000480222
0.00048157
0.000482924
0.000484277
0.000485628
0.000486986
0.000488343
0.000489707
0.000491069
0.00049243
0.000493797
0.000495163
0.000496536
0.000497908
0.000499278
0.000500655
0.00050203
0.000503413
0.000504793
0.000506173
0.000507559
0.000508944
0.000510336
0.000511726
0.000513115
0.00051451
0.000515905
0.000517306
0.000518705
0.000520104
0.000521508
0.000522913
0.000524323
0.000525732
0.000527139
0.000528554
0.000529966
0.000531387
0.000532804
0.000534223
0.000535644
0.000537069
0.000538496
0.000539926
0.000541358
0.000542786
0.000544222
0.000545657
0.000547098
0.000548538
0.000549977
0.000551421
0.000552866
0.000554316
0.000555766
0.000557214
0.000558668
0.000560122
0.000561581
0.00056304
0.000564497
0.000565961
0.000567424
0.000568893
0.000570361
0.000571828
0.000573301
0.000574773
0.000576252
0.000577729
0.000579205
0.000580687
0.000582169
0.000583657
0.000585144
0.000586629
0.000588121
0.000589612
0.000591109
0.000592605
0.0005941
0.000595601
0.000597101
0.000598609
0.000600113
0.000601618
0.000603127
0.000604639
0.000606153
0.000607671
0.000609189
0.000610705
0.000612228
0.000613749
0.000615278
0.000616805
0.000618331
0.000619862
0.000621394
0.000622931
0.000624468
0.000626003
0.000627544
0.000629085
0.000630632
0.000632177
0.000633722
0.000635272
0.000636822
0.000638379
0.000639934
0.000641487
0.000643047
0.000644607
0.000646173
0.000647737
0.0006493
0.000650869
0.000652438
0.000654013
0.000655587
0.00065716
0.000658738
0.000660316
0.000661901
0.000663484
0.000665066
0.000666654
0.000668242
0.000669835
0.000671428
0.000673019
0.000674617
0.000676213
0.000677817
0.000679417
0.000681019
0.000682625
0.000684233
0.000685843
0.000687457
0.000689072
0.000690684
0.000692304
0.000693922
0.000695547
0.00069717
0.000698792
0.00070042
0.000702048
0.000703682
0.000705315
0.000706946
0.000708584
0.000710221
0.000711864
0.000713507
0.000715148
0.000716795
0.000718441
0.000720094
0.000721745
0.000723395
0.000725052
0.000726708
0.00072837
0.000730031
0.00073169
0.000733356
0.000735021
0.000736693
0.000738363
0.000740032
0.000741707
0.000743382
0.000745062
0.000746742
0.00074842
0.000750105
0.000751788
0.000753479
0.000755167
0.000756856
0.000758548
0.000760243
0.000761941
0.000763642
0.000765344
0.000767043
0.00076875
0.000770455
0.000772167
0.000773877
0.000775587
0.000777302
0.000779017
0.000780738
0.000782457
0.000784176
0.000785901
0.000787625
0.000789355
0.000791085
0.000792813
0.000794547
0.00079628
0.00079802
0.000799758
0.000801496
0.000803239
0.000804982
0.000806731
0.000808479
0.000810226
0.000811979
0.000813731
0.000815489
0.000817247
0.000819003
0.000820765
0.000822527
0.000824295
0.000826061
0.000827827
0.000829598
0.000831369
0.000833146
0.000834922
0.000836697
0.000838478
0.000840258
0.000842045
0.00084383
0.000845615
0.000847404
0.000849195
0.000850989
0.000852787
0.000854585
0.000856381
0.000858184
0.000859985
0.000861794
0.0008636
0.000865406
0.000867218
0.000869029
0.000870847
0.000872663
0.000874478
0.000876299
0.00087812
0.000879947
0.000881772
0.000883597
0.000885427
0.000887257
0.000889093
0.000890928
0.000892762
0.000894602
0.000896441
0.000898287
0.000900131
0.000901974
0.000903823
0.000905672
0.000907527
0.000909381
0.000911233
0.000913092
0.00091495
0.000916814
0.000918677
0.000920539
0.000922407
0.000924274
0.000926148
0.00092802
0.000929892
0.000931768
0.000933647
0.000935528
0.000937412
0.000939298
0.000941181
0.000943071
0.000944959
0.000946855
0.000948748
0.000950641
0.00095254
0.000954439
0.000956343
0.000958246
0.000960148
0.000962057
0.000963964
0.000965878
0.000967791
0.000969702
0.00097162
0.000973537
0.00097546
0.000977382
0.000979303
0.00098123
0.000983156
0.000985089
0.00098702
0.000988951
0.000990887
0.000992823
0.000994765
0.000996705
0.000998645
0.00100059
0.00100254
0.00100449
0.00100644
0.00100839
0.00101034
0.0010123
0.00101426
0.00101622
0.00101817
0.00102014
0.0010221
0.00102407
0.00102604
0.00102801
0.00102998
0.00103196
0.00103393
0.00103592
0.0010379
0.00103988
0.00104186
0.00104385
0.00104584
0.00104783
0.00104982
0.00105181
0.00105381
0.00105581
0.00105781
0.00105981
0.00106181
0.00106382
0.00106583
0.00106784
0.00106984
0.00107186
0.00107387
0.00107589
0.00107791
0.00107993
0.00108195
0.00108397
0.001086
0.00108803
0.00109006
0.00109209
0.00109412
0.00109616
0.0010982
0.00110023
0.00110228
0.00110432
0.00110636
0.00110841
0.00111046
0.00111251
0.00111456
0.00111662
0.00111867
0.00112073
0.00112279
0.00112485
0.00112691
0.00112898
0.00113105
0.00113312
0.00113519
0.00113726
0.00113934
0.00114142
0.0011435
0.00114558
0.00114766
0.00114975
0.00115183
0.00115392
0.00115601
0.0011581
0.0011602
0.0011623
0.00116439
0.00116649
0.00116859
0.0011707
0.0011728
0.00117491
0.00117702
0.00117913
0.00118125
0.00118336
0.00118547
0.00118759
0.00118971
0.00119184
0.00119396
0.00119609
0.00119822
0.00120034
0.00120248
0.00120461
0.00120674
0.00120888
0.00121102
0.00121317
0.00121531
0.00121745
0.0012196
0.00122175
0.0012239
0.00122605
0.0012282
0.00123036
0.00123252
0.00123468
0.00123684
0.00123901
0.00124117
0.00124334
0.00124551
0.00124768
0.00124986
0.00125203
0.00125421
0.00125639
0.00125857
0.00126076
0.00126294
0.00126513
0.00126731
0.00126951
0.0012717
0.00127389
0.00127609
0.00127829
0.00128049
0.00128269
0.00128489
0.0012871
0.0012893
0.00129152
0.00129373
0.00129594
0.00129816
0.00130037
0.00130259
0.00130481
0.00130703
0.00130926
0.00131148
0.00131371
0.00131594
0.00131817
0.00132041
0.00132264
0.00132488
0.00132712
0.00132936
0.0013316
0.00133385
0.0013361
0.00133835
0.0013406
0.00134285
0.00134511
0.00134736
0.00134963
0.00135189
0.00135415
0.00135641
0.00135868
0.00136095
0.00136322
0.00136549
0.00136776
0.00137004
0.00137232
0.0013746
0.00137688
0.00137916
0.00138145
0.00138374
0.00138603
0.00138831
0.00139061
0.0013929
0.0013952
0.0013975
0.0013998
0.0014021
0.0014044
0.00140671
0.00140902
0.00141133
0.00141364
0.00141595
0.00141827
0.00142059
0.0014229
0.00142522
0.00142755
0.00142987
0.0014322
0.00143452
0.00143686
0.00143919
0.00144152
0.00144386
0.0014462
0.00144853
0.00145088
0.00145322
0.00145557
0.00145792
0.00146026
0.00146262
0.00146497
0.00146733
0.00146969
0.00147204
0.0014744
0.00147677
0.00147913
0.0014815
0.00148387
0.00148624
0.00148861
0.00149099
0.00149336
0.00149574
0.00149812
0.0015005
0.00150289
0.00150527
0.00150765
0.00151005
0.00151244
0.00151483
0.00151723
0.00151962
0.00152202
0.00152442
0.00152682
0.00152923
0.00153163
0.00153404
0.00153645
0.00153886
0.00154128
0.00154369
0.00154611
0.00154853
0.00155095
0.00155337
0.00155579
0.00155822
0.00156065
0.00156308
0.00156552
0.00156795
0.00157039
0.00157283
0.00157527
0.00157771
0.00158016
0.0015826
0.00158505
0.0015875
0.00158995
0.00159241
0.00159486
0.00159732
0.00159978
0.00160224
0.0016047
0.00160717
0.00160963
0.0016121
0.00161457
0.00161705
0.00161952
0.001622
0.00162447
0.00162696
0.00162944
0.00163192
0.0016344
0.00163689
0.00163938
0.00164187
0.00164436
0.00164686
0.00164936
0.00165186
0.00165436
0.00165686
0.00165936
0.00166187
0.00166438
0.00166689
0.0016694
0.00167191
0.00167443
0.00167695
0.00167947
0.00168199
0.00168451
0.00168703
0.00168956
0.00169209
0.00169463
0.00169716
0.00169969
0.00170223
0.00170477
0.00170731
0.00170985
0.0017124
0.00171494
0.00171749
0.00172004
0.00172259
0.00172515
0.0017277
0.00173026
0.00173282
0.00173538
0.00173795
0.00174051
0.00174308
0.00174565
0.00174822
0.00175079
0.00175336
0.00175594
0.00175852
0.0017611
0.00176368
0.00176627
0.00176885
0.00177144
0.00177403
0.00177662
0.00177921
0.00178181
0.00178441
0.001787
0.00178961
0.00179221
0.00179482
0.00179742
0.00180003
0.00180264
0.00180525
0.00180786
0.00181048
0.0018131
0.00181572
0.00181834
0.00182097
0.0018236
0.00182622
0.00182885
0.00183148
0.00183411
0.00183675
0.00183939
0.00184203
0.00184467
0.00184731
0.00184996
0.0018526
0.00185525
0.0018579
0.00186055
0.00186321
0.00186587
0.00186852
0.00187118
0.00187384
0.00187651
0.00187917
0.00188184
0.00188451
0.00188718
0.00188985
0.00189253
0.0018952
0.00189788
0.00190056
0.00190325
0.00190593
0.00190861
0.0019113
0.00191399
0.00191669
0.00191938
0.00192207
0.00192477
0.00192747
0.00193017
0.00193287
0.00193558
0.00193828
0.00194099
0.0019437
0.00194642
0.00194913
0.00195185
0.00195457
0.00195729
0.00196001
0.00196274
0.00196546
0.00196819
0.00197092
0.00197365
0.00197639
0.00197912
0.00198186
0.0019846
0.00198734
0.00199008
0.00199283
0.00199557
0.00199832
0.00200107
0.00200383
0.00200658
0.00200934
0.00201209
0.00201486
0.00201762
0.00202038
0.00202314
0.00202591
0.00202868
0.00203145
0.00203422
0.002037
0.00203978
0.00204256
0.00204534
0.00204812
0.0020509
0.00205369
0.00205648
0.00205927
0.00206206
0.00206485
0.00206765
0.00207045
0.00207325
0.00207605
0.00207885
0.00208166
0.00208446
0.00208728
0.00209009
0.0020929
0.00209572
0.00209853
0.00210135
0.00210417
0.00210699
0.00210982
0.00211264
0.00211548
0.00211831
0.00212113
0.00212397
0.0021268
0.00212965
0.00213248
0.00213532
0.00213817
0.00214101
0.00214386
0.00214671
0.00214956
0.00215241
0.00215526
0.00215812
0.00216098
0.00216384
0.0021667
0.00216957
0.00217243
0.0021753
0.00217817
0.00218104
0.00218391
0.00218679
0.00218967
0.00219254
0.00219543
0.00219831
0.00220119
0.00220408
0.00220697
0.00220986
0.00221275
0.00221564
0.00221854
0.00222144
0.00222434
0.00222724
0.00223014
0.00223305
0.00223596
0.00223887
0.00224178
0.00224469
0.00224761
0.00225053
0.00225344
0.00225637
0.00225929
0.00226222
0.00226514
0.00226807
0.002271
0.00227393
0.00227687
0.0022798
0.00228274
0.00228568
0.00228862
0.00229157
0.00229451
0.00229746
0.00230041
0.00230336
0.00230631
0.00230927
0.00231222
0.00231518
0.00231814
0.0023211
0.00232407
0.00232703
0.00233
0.00233297
0.00233594
0.00233892
0.00234189
0.00234487
0.00234784
0.00235083
0.00235381
0.00235679
0.00235978
0.00236277
0.00236576
0.00236875
0.00237175
0.00237474
0.00237774
0.00238074
0.00238375
0.00238675
0.00238975
0.00239276
0.00239577
0.00239879
0.0024018
0.00240481
0.00240783
0.00241085
0.00241387
0.0024169
0.00241992
0.00242295
0.00242597
0.00242901
0.00243204
0.00243507
0.00243811
0.00244115
0.00244419
0.00244723
0.00245027
0.00245332
0.00245636
0.00245942
0.00246247
0.00246552
0.00246857
0.00247163
0.00247469
0.00247775
0.00248081
0.00248388
0.00248694
0.00249001
0.00249308
0.00249615
0.00249922
0.0025023
0.00250538
0.00250846
0.00251154
0.00251462
0.00251771
0.0025208
0.00252389
0.00252698
0.00253007
0.00253317
0.00253626
0.00253936
0.00254246
0.00254556
0.00254867
0.00255177
0.00255489
0.002558
0.0025611
0.00256422
0.00256733
0.00257045
0.00257357
0.00257669
0.00257982
0.00258294
0.00258607
0.0025892
0.00259233
0.00259546
0.00259859
0.00260173
0.00260487
0.00260801
0.00261115
0.00261429
0.00261744
0.00262059
0.00262374
0.00262689
0.00263004
0.0026332
0.00263636
0.00263951
0.00264267
0.00264583
0.002649
0.00265217
0.00265533
0.0026585
0.00266168
0.00266485
0.00266803
0.00267121
0.00267439
0.00267757
0.00268075
0.00268394
0.00268713
0.00269031
0.00269351
0.0026967
0.0026999
0.0027031
0.00270629
0.00270949
0.00271269
0.0027159
0.00271911
0.00272231
0.00272553
0.00272874
0.00273195
0.00273517
0.00273838
0.0027416
0.00274483
0.00274805
0.00275128
0.0027545
0.00275773
0.00276096
0.0027642
0.00276743
0.00277066
0.0027739
0.00277714
0.00278039
0.00278363
0.00278687
0.00279012
0.00279337
0.00279663
0.00279988
0.00280313
0.00280639
0.00280965
0.00281291
0.00281618
0.00281944
0.00282271
0.00282598
0.00282925
0.00283252
0.0028358
0.00283907
0.00284235
0.00284563
0.00284892
0.0028522
0.00285548
0.00285877
0.00286206
0.00286535
0.00286865
0.00287194
0.00287524
0.00287854
0.00288184
0.00288514
0.00288845
0.00289175
0.00289506
0.00289837
0.00290169
0.002905
0.00290832
0.00291163
0.00291495
0.00291828
0.0029216
0.00292492
0.00292825
0.00293158
0.00293491
0.00293824
0.00294158
0.00294491
0.00294825
0.0029516
0.00295493
0.00295828
0.00296162
0.00296498
0.00296832
0.00297167
0.00297503
0.00297838
0.00298174
0.0029851
0.00298847
0.00299183
0.00299519
0.00299856
0.00300193
0.0030053
0.00300867
0.00301205
0.00301543
0.00301881
0.00302219
0.00302557
0.00302895
0.00303234
0.00303573
0.00303912
0.00304251
0.0030459
0.0030493
0.0030527
0.0030561
0.0030595
0.0030629
0.0030663
0.00306971
0.00307312
0.00307653
0.00307994
0.00308336
0.00308678
0.00309019
0.00309361
0.00309703
0.00310046
0.00310388
0.00310731
0.00311074
0.00311417
0.0031176
0.00312104
0.00312448
0.00312791
0.00313135
0.0031348
0.00313824
0.00314169
0.00314514
0.00314859
0.00315204
0.0031555
0.00315896
0.00316241
0.00316587
0.00316933
0.0031728
0.00317627
0.00317973
0.0031832
0.00318667
0.00319014
0.00319362
0.0031971
0.00320058
0.00320406
0.00320754
0.00321103
0.00321451
0.003218
0.00322149
0.00322498
0.00322848
0.00323197
0.00323547
0.00323897
0.00324247
0.00324597
0.00324948
0.00325298
0.00325649
0.00326
0.00326352
0.00326703
0.00327055
0.00327407
0.00327759
0.00328111
0.00328463
0.00328816
0.00329169
0.00329521
0.00329875
0.00330228
0.00330581
0.00330935
0.00331289
0.00331643
0.00331998
0.00332352
0.00332707
0.00333062
0.00333417
0.00333772
0.00334128
0.00334483
0.00334839
0.00335195
0.00335552
0.00335908
0.00336264
0.00336621
0.00336978
0.00337336
0.00337693
0.0033805
0.00338408
0.00338766
0.00339124
0.00339482
0.00339841
0.00340199
0.00340558
0.00340917
0.00341277
0.00341636
0.00341995
0.00342355
0.00342715
0.00343076
0.00343436
0.00343796
0.00344157
0.00344518
0.00344879
0.0034524
0.00345602
0.00345963
0.00346325
0.00346687
0.00347049
0.00347412
0.00347774
0.00348137
0.00348501
0.00348864
0.00349227
0.00349591
0.00349954
0.00350319
0.00350683
0.00351047
0.00351412
0.00351776
0.00352141
0.00352507
0.00352872
0.00353237
0.00353603
0.00353969
0.00354335
0.00354701
0.00355067
0.00355434
0.00355801
0.00356168
0.00356535
0.00356902
0.0035727
0.00357638
0.00358006
0.00358374
0.00358742
0.0035911
0.00359479
0.00359848
0.00360217
0.00360586
0.00360956
0.00361326
0.00361695
0.00362065
0.00362435
0.00362806
0.00363176
0.00363547
0.00363918
0.00364289
0.0036466
0.00365032
0.00365404
0.00365775
0.00366147
0.0036652
0.00366892
0.00367265
0.00367638
0.00368011
0.00368384
0.00368757
0.00369131
0.00369505
0.00369879
0.00370253
0.00370627
0.00371002
0.00371377
0.00371752
0.00372127
0.00372502
0.00372878
0.00373254
0.00373629
0.00374005
0.00374382
0.00374758
0.00375135
0.00375512
0.00375889
0.00376266
0.00376643
0.00377021
0.00377398
0.00377777
0.00378155
0.00378533
0.00378912
0.0037929
0.00379669
0.00380048
0.00380428
0.00380807
0.00381186
0.00381566
0.00381946
0.00382327
0.00382707
0.00383087
0.00383468
0.00383849
0.0038423
0.00384612
0.00384994
0.00385375
0.00385757
0.00386139
0.00386522
0.00386904
0.00387287
0.0038767
0.00388053
0.00388436
0.0038882
0.00389203
0.00389587
0.00389971
0.00390356
0.0039074
0.00391124
0.00391509
0.00391894
0.00392279
0.00392665
0.0039305
0.00393436
0.00393822
0.00394208
0.00394594
0.0039498
0.00395367
0.00395754
0.00396141
0.00396528
0.00396916
0.00397303
0.00397691
0.00398079
0.00398467
0.00398855
0.00399244
0.00399633
0.00400022
0.00400411
0.004008
0.00401189
0.00401579
0.00401969
0.00402359
0.00402749
0.00403139
0.0040353
0.00403921
0.00404312
0.00404703
0.00405095
0.00405486
0.00405878
0.0040627
0.00406662
0.00407055
0.00407447
0.0040784
0.00408233
0.00408626
0.00409019
0.00409413
0.00409806
0.004102
0.00410594
0.00410988
0.00411383
0.00411777
0.00412173
0.00412568
0.00412962
0.00413358
0.00413753
0.00414149
0.00414545
0.00414941
0.00415337
0.00415734
0.00416131
0.00416528
0.00416924
0.00417322
0.00417719
0.00418117
0.00418515
0.00418912
0.00419311
0.00419709
0.00420108
0.00420506
0.00420905
0.00421304
0.00421704
0.00422103
0.00422503
0.00422903
0.00423303
0.00423703
0.00424104
0.00424505
0.00424906
0.00425306
0.00425708
0.00426109
0.00426511
0.00426913
0.00427315
0.00427717
0.00428119
0.00428522
0.00428925
0.00429327
0.00429731
0.00430134
0.00430538
0.00430941
0.00431345
0.00431749
0.00432153
0.00432558
0.00432963
0.00433367
0.00433772
0.00434177
0.00434583
0.00434988
0.00435394
0.004358
0.00436206
0.00436613
0.00437019
0.00437425
0.00437832
0.00438239
0.00438647
0.00439054
0.00439462
0.0043987
0.00440277
0.00440686
0.00441094
0.00441503
0.00441911
0.0044232
0.0044273
0.00443139
0.00443549
0.00443958
0.00444368
0.00444778
0.00445189
0.004456
0.0044601
0.00446421
0.00446832
0.00447244
0.00447655
0.00448066
0.00448478
0.0044889
0.00449303
0.00449715
0.00450127
0.0045054
0.00450953
0.00451367
0.0045178
0.00452193
0.00452607
0.00453021
0.00453435
0.00453849
0.00454264
0.00454678
0.00455093
0.00455508
0.00455924
0.00456339
0.00456754
0.0045717
0.00457586
0.00458002
0.00458418
0.00458835
0.00459252
0.00459669
0.00460086
0.00460503
0.0046092
0.00461338
0.00461756
0.00462174
0.00462593
0.00463011
0.0046343
0.00463848
0.00464268
0.00464687
0.00465106
0.00465526
0.00465945
0.00466366
0.00466786
0.00467206
0.00467627
0.00468047
0.00468468
0.00468889
0.0046931
0.00469732
0.00470154
0.00470576
0.00470998
0.0047142
0.00471842
0.00472265
0.00472688
0.00473111
0.00473534
0.00473957
0.00474381
0.00474805
0.00475228
0.00475652
0.00476077
0.00476501
0.00476926
0.00477351
0.00477776
0.00478201
0.00478626
0.00479052
0.00479478
0.00479903
0.0048033
0.00480756
0.00481183
0.0048161
0.00482036
0.00482463
0.00482891
0.00483318
0.00483746
0.00484174
0.00484602
0.0048503
0.00485459
0.00485888
0.00486317
0.00486745
0.00487175
0.00487604
0.00488034
0.00488464
0.00488893
0.00489324
0.00489754
0.00490185
0.00490616
0.00491046
0.00491478
0.00491909
0.00492341
0.00492772
0.00493204
0.00493636
0.00494068
0.00494501
0.00494933
0.00495366
0.00495799
0.00496232
0.00496666
0.00497099
0.00497533
0.00497967
0.00498401
0.00498835
0.0049927
0.00499704
0.00500139
0.00500574
0.0050101
0.00501445
0.00501881
0.00502316
0.00502752
0.00503189
0.00503625
0.00504062
0.00504498
0.00504936
0.00505373
0.0050581
0.00506248
0.00506685
0.00507123
0.00507562
0.00508
0.00508439
0.00508877
0.00509316
0.00509755
0.00510195
0.00510634
0.00511073
0.00511513
0.00511953
0.00512394
0.00512834
0.00513274
0.00513715
0.00514156
0.00514598
0.00515039
0.0051548
0.00515922
0.00516364
0.00516806
0.00517248
0.0051769
0.00518133
0.00518576
0.00519019
0.00519462
0.00519906
0.00520349
0.00520793
0.00521237
0.00521681
0.00522125
0.0052257
0.00523014
0.0052346
0.00523905
0.0052435
0.00524795
0.00525241
0.00525687
0.00526133
0.00526579
0.00527025
0.00527472
0.00527919
0.00528366
0.00528814
0.00529261
0.00529708
0.00530156
0.00530604
0.00531053
0.00531501
0.00531949
0.00532398
0.00532847
0.00533296
0.00533745
0.00534195
0.00534644
0.00535094
0.00535544
0.00535994
0.00536445
0.00536895
0.00537346
0.00537797
0.00538248
0.005387
0.00539151
0.00539603
0.00540055
0.00540507
0.00540959
0.00541412
0.00541864
0.00542317
0.0054277
0.00543223
0.00543677
0.00544131
0.00544584
0.00545038
0.00545492
0.00545947
0.00546401
0.00546856
0.00547311
0.00547766
0.00548222
0.00548677
0.00549133
0.00549589
0.00550045
0.00550501
0.00550958
0.00551415
0.00551871
0.00552328
0.00552786
0.00553243
0.00553701
0.00554159
0.00554616
0.00555075
0.00555533
0.00555992
0.0055645
0.00556909
0.00557368
0.00557827
0.00558287
0.00558747
0.00559206
0.00559667
0.00560127
0.00560587
0.00561048
0.00561509
0.0056197
0.00562431
0.00562892
0.00563354
0.00563815
0.00564277
0.00564739
0.00565202
0.00565664
0.00566127
0.0056659
0.00567053
0.00567516
0.0056798
0.00568443
0.00568907
0.00569371
0.00569835
0.005703
0.00570764
0.00571229
0.00571694
0.00572159
0.00572625
0.0057309
0.00573556
0.00574022
0.00574488
0.00574955
0.00575421
0.00575887
0.00576354
0.00576821
0.00577289
0.00577756
0.00578224
0.00578692
0.0057916
0.00579628
0.00580096
0.00580565
0.00581034
0.00581502
0.00581972
0.00582441
0.0058291
0.0058338
0.0058385
0.0058432
0.00584791
0.00585261
0.00585731
0.00586202
0.00586673
0.00587145
0.00587616
0.00588087
0.00588559
0.00589031
0.00589503
0.00589975
0.00590448
0.00590921
0.00591394
0.00591867
0.0059234
0.00592814
0.00593287
0.00593761
0.00594236
0.0059471
0.00595184
0.00595659
0.00596134
0.00596609
0.00597084
0.00597559
0.00598035
0.00598511
0.00598987
0.00599463
0.00599939
0.00600416
0.00600892
0.00601369
0.00601847
0.00602324
0.00602801
0.00603279
0.00603757
0.00604235
0.00604713
0.00605191
0.0060567
0.00606149
0.00606628
0.00607107
0.00607586
0.00608065
0.00608545
0.00609025
0.00609505
0.00609986
0.00610466
0.00610947
0.00611428
0.00611908
0.0061239
0.00612871
0.00613353
0.00613835
0.00614317
0.00614799
0.00615281
0.00615764
0.00616247
0.0061673
0.00617213
0.00617696
0.0061818
0.00618664
0.00619148
0.00619631
0.00620116
0.006206
0.00621085
0.0062157
0.00622055
0.0062254
0.00623025
0.00623511
0.00623997
0.00624483
0.00624969
0.00625455
0.00625942
0.00626429
0.00626916
0.00627403
0.0062789
0.00628378
0.00628865
0.00629353