/*--------------------------------*- C++ -*----------------------------------*\
| =========                 |                                                 |
| \\      /  F ield         | OpenFOAM: The Open Source CFD Toolbox           |
|  \\    /   O peration     | Version:  2206                                  |
|   \\  /    A nd           | Website:  www.openfoam.com                      |
|    \\/     M anipulation  |                                                 |
\*---------------------------------------------------------------------------*/
FoamFile
{
    version     2.0;
    format      ascii;
    arch        "LSB;label=32;scalar=64";
    class       surfaceScalarField;
    location    "183";
    object      phi;
}
// * * * * * * * * * * * * * * * * * * * * * * * * * * * * * * * * * * * * * //

dimensions      [0 3 -1 0 0 0 0];

oriented        oriented;

internalField   nonuniform List<scalar> 
94990
(
-4.13258e-25
3.80967e-24
-1.41319e-24
1.05887e-24
-4.19617e-24
2.7997e-24
-8.25642e-24
4.12781e-24
-1.13506e-23
3.09571e-24
-1.45406e-23
3.17878e-24
-2.1609e-23
7.05416e-24
-3.01279e-23
8.50435e-24
-3.98595e-23
9.744e-24
-4.60169e-23
6.15413e-24
-5.23245e-23
6.31231e-24
-6.49636e-23
1.26329e-23
-7.91851e-23
1.42231e-23
-9.45076e-23
1.53198e-23
-1.03788e-22
9.2828e-24
-1.13196e-22
9.40507e-24
-1.31443e-22
1.82489e-23
-1.51335e-22
1.98895e-23
-1.7228e-22
2.09456e-23
-1.84636e-22
1.23539e-23
-1.97213e-22
1.25781e-23
-2.20981e-22
2.37663e-23
-2.46816e-22
2.58359e-23
-2.74079e-22
2.72617e-23
-3.01915e-22
2.78363e-23
-3.18262e-22
1.6346e-23
-3.34633e-22
1.63717e-23
-3.65493e-22
3.08584e-23
-3.98174e-22
3.26825e-23
-4.31703e-22
3.35277e-23
-4.51087e-22
1.93842e-23
-4.70626e-22
1.95384e-23
-5.07042e-22
3.6416e-23
-5.4544e-22
3.83974e-23
-5.84544e-22
3.91041e-23
-6.07055e-22
2.25106e-23
-6.29698e-22
2.26434e-23
-6.71716e-22
4.20171e-23
-7.15797e-22
4.40817e-23
-7.605e-22
4.47016e-23
-7.86122e-22
2.56226e-23
-8.1188e-22
2.57581e-23
-8.59492e-22
4.76119e-23
-9.09262e-22
4.97698e-23
-9.59559e-22
5.0297e-23
-9.88295e-22
2.87355e-23
-1.01717e-21
2.88727e-23
-1.07037e-21
5.32061e-23
-1.12583e-21
5.54589e-23
-1.18172e-21
5.5891e-23
-1.21357e-21
3.18499e-23
-1.24556e-21
3.19858e-23
-1.30436e-21
5.88018e-23
-1.36551e-21
6.11464e-23
-1.42699e-21
6.14866e-23
-1.46196e-21
3.49631e-23
-1.49706e-21
3.50999e-23
-1.56145e-21
6.43969e-23
-1.62829e-21
6.68339e-23
-1.69537e-21
6.70828e-23
-1.73345e-21
3.80744e-23
-1.77166e-21
3.82176e-23
-1.84165e-21
6.99857e-23
-1.91418e-21
7.25313e-23
-1.98684e-21
7.26639e-23
-2.02805e-21
4.12086e-23
-2.06935e-21
4.13013e-23
-2.14498e-21
7.56247e-23
-2.22313e-21
7.81551e-23
-2.30149e-21
7.83527e-23
-2.34567e-21
4.41859e-23
-2.39029e-21
4.46164e-23
-2.47124e-21
8.09552e-23
-2.55592e-21
8.46778e-23
-2.64203e-21
8.61068e-23
-2.72705e-21
8.50213e-23
-2.77544e-21
4.83884e-23
-2.82364e-21
4.82002e-23
-2.91191e-21
8.82686e-23
-3.00285e-21
9.09431e-23
-3.09376e-21
9.09066e-23
-3.14504e-21
5.12777e-23
-3.19651e-21
5.14705e-23
-3.29026e-21
9.37528e-23
-3.38697e-21
9.67096e-23
-3.48341e-21
9.64459e-23
-3.53784e-21
5.44308e-23
-3.5924e-21
5.45564e-23
-3.69177e-21
9.93677e-23
-3.79415e-21
1.02383e-22
-3.8962e-21
1.02051e-22
-3.95374e-21
5.7537e-23
-4.01142e-21
5.76758e-23
-4.11638e-21
1.04958e-22
-4.22445e-21
1.08075e-22
-4.33209e-21
1.07644e-22
-4.39275e-21
6.06526e-23
-4.45353e-21
6.07882e-23
-4.56409e-21
1.10554e-22
-4.67785e-21
1.13762e-22
-4.79109e-21
1.13239e-22
-4.85486e-21
6.37662e-23
-4.91876e-21
6.39018e-23
-5.03491e-21
1.1615e-22
-5.15436e-21
1.19448e-22
-5.27319e-21
1.18837e-22
-5.34007e-21
6.6875e-23
-5.40709e-21
6.70232e-23
-5.52883e-21
1.21734e-22
-5.65398e-21
1.25153e-22
-5.77839e-21
1.24407e-22
-5.84841e-21
7.00245e-23
-5.9185e-21
7.00851e-23
-6.0459e-21
1.27404e-22
-6.17663e-21
1.30732e-22
-6.30679e-21
1.3016e-22
-6.3797e-21
7.29107e-23
-6.45324e-21
7.35327e-23
-6.5858e-21
1.32562e-22
-6.72358e-21
1.37779e-22
-6.86279e-21
1.39208e-22
-6.99941e-21
1.36628e-22
-7.07672e-21
7.73047e-23
-7.15364e-21
7.6925e-23
-7.29372e-21
1.40076e-22
-7.43724e-21
1.4352e-22
-7.57993e-21
1.42686e-22
-7.65999e-21
8.00619e-23
-7.74027e-21
8.02863e-23
-7.88577e-21
1.45496e-22
-8.0351e-21
1.49331e-22
-8.1833e-21
1.48194e-22
-8.26653e-21
8.32366e-23
-8.34989e-21
8.33571e-23
-8.50101e-21
1.51122e-22
-8.65601e-21
1.54998e-22
-8.80981e-21
1.53804e-22
-8.89615e-21
8.63393e-23
-8.98263e-21
8.64789e-23
-9.13934e-21
1.56711e-22
-9.30003e-21
1.6069e-22
-9.45943e-21
1.59396e-22
-9.54888e-21
8.94556e-23
-9.63848e-21
8.95908e-23
-9.80078e-21
1.62307e-22
-9.96716e-21
1.66377e-22
-1.01322e-20
1.64992e-22
-1.02247e-20
9.25681e-23
-1.03174e-20
9.27059e-23
-1.04853e-20
1.67901e-22
-1.06574e-20
1.72066e-22
-1.0828e-20
1.70585e-22
-1.09237e-20
9.5684e-23
-1.10195e-20
9.5817e-23
-1.1193e-20
1.73499e-22
-1.13707e-20
1.7775e-22
-1.15469e-20
1.76187e-22
-1.16457e-20
9.87885e-23
-1.17446e-20
9.8944e-23
-1.19237e-20
1.79076e-22
-1.21072e-20
1.83464e-22
-1.22889e-20
1.81744e-22
-1.23909e-20
1.01956e-22
-1.24929e-20
1.0198e-22
-1.26777e-20
1.84782e-22
-1.28666e-20
1.88993e-22
-1.30542e-20
1.87568e-22
-1.3159e-20
1.0474e-22
-1.32645e-20
1.05576e-22
-1.34543e-20
1.89747e-22
-1.36509e-20
1.96622e-22
-1.38489e-20
1.9805e-22
-1.40428e-20
1.93814e-22
-1.41521e-20
1.09347e-22
-1.42609e-20
1.08756e-22
-1.44583e-20
1.97483e-22
-1.46601e-20
2.01782e-22
-1.48602e-20
2.00062e-22
-1.49721e-20
1.11959e-22
-1.50844e-20
1.12217e-22
-1.52872e-20
2.02834e-22
-1.54948e-20
2.07641e-22
-1.57004e-20
2.05537e-22
-1.58155e-20
1.15156e-22
-1.59308e-20
1.15272e-22
-1.61393e-20
2.0847e-22
-1.63526e-20
2.133e-22
-1.65637e-20
2.11152e-22
-1.6682e-20
1.18256e-22
-1.68004e-20
1.18395e-22
-1.70144e-20
2.14058e-22
-1.72334e-20
2.18993e-22
-1.74502e-20
2.16744e-22
-1.75715e-20
1.21371e-22
-1.76931e-20
1.21508e-22
-1.79127e-20
2.19653e-22
-1.81374e-20
2.24682e-22
-1.83597e-20
2.22338e-22
-1.84842e-20
1.24487e-22
-1.86088e-20
1.2462e-22
-1.88341e-20
2.25252e-22
-1.90645e-20
2.30364e-22
-1.92924e-20
2.27941e-22
-1.942e-20
1.27589e-22
-1.95477e-20
1.2775e-22
-1.97786e-20
2.30824e-22
-2.00146e-20
2.36086e-22
-2.02481e-20
2.33487e-22
-2.03789e-20
1.30772e-22
-2.05097e-20
1.30765e-22
-2.07462e-20
2.3656e-22
-2.09878e-20
2.4157e-22
-2.12272e-20
2.39375e-22
-2.13606e-20
1.33465e-22
-2.14951e-20
1.34493e-22
-2.17365e-20
2.41353e-22
-2.19862e-20
2.49724e-22
-2.22374e-20
2.51151e-22
-2.24828e-20
2.45421e-22
-2.2621e-20
1.38263e-22
-2.27585e-20
1.37481e-22
-2.30078e-20
2.4929e-22
-2.32622e-20
2.54359e-22
-2.3514e-20
2.51841e-22
-2.36548e-20
1.40743e-22
-2.37958e-20
1.41033e-22
-2.40504e-20
2.54577e-22
-2.43106e-20
2.60262e-22
-2.45679e-20
2.57285e-22
-2.47119e-20
1.43962e-22
-2.4856e-20
1.44073e-22
-2.51162e-20
2.60224e-22
-2.53821e-20
2.65914e-22
-2.5645e-20
2.62905e-22
-2.57921e-20
1.47058e-22
-2.59393e-20
1.47199e-22
-2.62051e-20
2.6581e-22
-2.64767e-20
2.71608e-22
-2.67452e-20
2.68496e-22
-2.68953e-20
1.50175e-22
-2.70457e-20
1.50311e-22
-2.73171e-20
2.71406e-22
-2.75944e-20
2.77296e-22
-2.78684e-20
2.74091e-22
-2.80217e-20
1.53288e-22
-2.81752e-20
1.53425e-22
-2.84522e-20
2.77001e-22
-2.87351e-20
2.82985e-22
-2.90148e-20
2.79685e-22
-2.91712e-20
1.56404e-22
-2.93278e-20
1.56536e-22
-2.96104e-20
2.826e-22
-2.9899e-20
2.88666e-22
-3.01843e-20
2.85289e-22
-3.03438e-20
1.59504e-22
-3.05035e-20
1.5967e-22
-3.07917e-20
2.88166e-22
-3.10861e-20
2.94396e-22
-3.13769e-20
2.90825e-22
-3.15396e-20
1.62703e-22
-3.17023e-20
1.62661e-22
-3.19962e-20
2.93937e-22
-3.2296e-20
2.99831e-22
-3.25928e-20
2.96783e-22
-3.27581e-20
1.65296e-22
-3.29246e-20
1.66535e-22
-3.32232e-20
2.98539e-22
-3.35317e-20
3.08566e-22
-3.38417e-20
3.09994e-22
-3.41443e-20
3.02606e-22
-3.43146e-20
1.70307e-22
-3.4484e-20
1.69311e-22
-3.47907e-20
3.06698e-22
-3.51033e-20
3.1262e-22
-3.54125e-20
3.09218e-22
-3.55851e-20
1.72639e-22
-3.57581e-20
1.72964e-22
-3.607e-20
3.11914e-22
-3.63886e-20
3.18573e-22
-3.67032e-20
3.14627e-22
-3.68791e-20
1.75883e-22
-3.70551e-20
1.75987e-22
-3.73727e-20
3.17573e-22
-3.76969e-20
3.24216e-22
-3.80171e-20
3.20253e-22
-3.81961e-20
1.78974e-22
-3.83752e-20
1.79116e-22
-3.86984e-20
3.23157e-22
-3.90283e-20
3.29912e-22
-3.93541e-20
3.25843e-22
-3.95362e-20
1.82092e-22
-3.97184e-20
1.82228e-22
-4.00472e-20
3.28753e-22
-4.03828e-20
3.356e-22
-4.07142e-20
3.31437e-22
-4.08994e-20
1.85207e-22
-4.10848e-20
1.85339e-22
-4.14191e-20
3.34353e-22
-4.17604e-20
3.41281e-22
-4.20975e-20
3.37043e-22
-4.22858e-20
1.88305e-22
-4.24742e-20
1.88476e-22
-4.28142e-20
3.39914e-22
-4.31612e-20
3.47017e-22
-4.35037e-20
3.42568e-22
-4.36953e-20
1.91519e-22
-4.38867e-20
1.91446e-22
-4.42324e-20
3.45716e-22
-4.45848e-20
3.52408e-22
-4.49334e-20
3.4859e-22
-4.51274e-20
1.94021e-22
-4.53229e-20
1.95452e-22
-4.5673e-20
3.50145e-22
-4.60347e-20
3.61667e-22
-4.63978e-20
3.63095e-22
-4.6752e-20
3.54212e-22
-4.69512e-20
1.99223e-22
-4.71493e-20
1.98036e-22
-4.75078e-20
3.58505e-22
-4.7873e-20
3.65197e-22
-4.8234e-20
3.60997e-22
-4.84354e-20
2.01423e-22
-4.86372e-20
2.0178e-22
-4.90008e-20
3.63658e-22
-4.9372e-20
3.71194e-22
-4.97384e-20
3.66375e-22
-4.99431e-20
2.04689e-22
-5.01479e-20
2.04788e-22
-5.05172e-20
3.69327e-22
-5.0894e-20
3.7683e-22
-5.1266e-20
3.72006e-22
-5.14738e-20
2.07777e-22
-5.16817e-20
2.0792e-22
-5.20566e-20
3.74909e-22
-5.24392e-20
3.82527e-22
-5.28168e-20
3.77595e-22
-5.30277e-20
2.10895e-22
-5.32387e-20
2.1103e-22
-5.36192e-20
3.80506e-22
-5.40074e-20
3.88214e-22
-5.43906e-20
3.83191e-22
-5.46046e-20
2.14008e-22
-5.48188e-20
2.14145e-22
-5.52049e-20
3.861e-22
-5.55988e-20
3.93904e-22
-5.59875e-20
3.88784e-22
-5.62047e-20
2.17125e-22
-5.64219e-20
2.17255e-22
-5.68136e-20
3.91701e-22
-5.72132e-20
3.99583e-22
-5.76076e-20
3.94392e-22
-5.78278e-20
2.20219e-22
-5.80482e-20
2.20396e-22
-5.84455e-20
3.97256e-22
-5.88508e-20
4.05327e-22
-5.92507e-20
3.99905e-22
-5.94742e-20
2.2345e-22
-5.96975e-20
2.23342e-22
-6.01006e-20
4.03093e-22
-6.05113e-20
4.10669e-22
-6.09173e-20
4.05998e-22
-6.11431e-20
2.25851e-22
-6.13706e-20
2.27495e-22
-6.17779e-20
4.07331e-22
-6.21984e-20
4.20509e-22
-6.26204e-20
4.21937e-22
-6.30318e-20
4.11398e-22
-6.3263e-20
2.31266e-22
-6.34929e-20
2.29866e-22
-6.39088e-20
4.15913e-22
-6.43323e-20
4.23458e-22
-6.47507e-20
4.18374e-22
-6.4984e-20
2.33319e-22
-6.52177e-20
2.33711e-22
-6.56387e-20
4.20995e-22
-6.60682e-20
4.29505e-22
-6.64919e-20
4.23717e-22
-6.67285e-20
2.36609e-22
-6.69652e-20
2.36702e-22
-6.73919e-20
4.26676e-22
-6.7827e-20
4.35133e-22
-6.82564e-20
4.29354e-22
-6.84961e-20
2.39693e-22
-6.87359e-20
2.39837e-22
-6.91682e-20
4.32256e-22
-6.9609e-20
4.40831e-22
-7.00439e-20
4.34943e-22
-7.02868e-20
2.42811e-22
-7.05297e-20
2.42948e-22
-7.09676e-20
4.37853e-22
-7.14141e-20
4.46519e-22
-7.18546e-20
4.40536e-22
-7.21005e-20
2.45928e-22
-7.23466e-20
2.46057e-22
-7.279e-20
4.43454e-22
-7.32422e-20
4.52197e-22
-7.36884e-20
4.46146e-22
-7.39374e-20
2.4902e-22
-7.41866e-20
2.49202e-22
-7.46356e-20
4.49005e-22
-7.50936e-20
4.57949e-22
-7.55452e-20
4.51649e-22
-7.57975e-20
2.52266e-22
-7.60496e-20
2.52126e-22
-7.65045e-20
4.54872e-22
-7.69677e-20
4.63246e-22
-7.74255e-20
4.57804e-22
-7.76801e-20
2.54576e-22
-7.79365e-20
2.56411e-22
-7.83955e-20
4.58937e-22
-7.88691e-20
4.73611e-22
-7.93441e-20
4.75039e-22
-7.98071e-20
4.63004e-22
-8.00673e-20
2.60183e-22
-8.03259e-20
2.58591e-22
-8.07936e-20
4.6772e-22
-8.12696e-20
4.76035e-22
-8.17398e-20
4.70153e-22
-8.20019e-20
2.62104e-22
-8.22644e-20
2.62527e-22
-8.27372e-20
4.72738e-22
-8.32193e-20
4.82126e-22
-8.36948e-20
4.75465e-22
-8.39602e-20
2.65415e-22
-8.42257e-20
2.65503e-22
-8.47041e-20
4.7843e-22
-8.51918e-20
4.87747e-22
-8.5673e-20
4.81108e-22
-8.59414e-20
2.68495e-22
-8.62101e-20
2.6864e-22
-8.66941e-20
4.84008e-22
-8.71875e-20
4.93446e-22
-8.76742e-20
4.86694e-22
-8.79459e-20
2.71615e-22
-8.82176e-20
2.7175e-22
-8.87072e-20
4.89606e-22
-8.92063e-20
4.99132e-22
-8.96986e-20
4.92291e-22
-8.99734e-20
2.74727e-22
-9.02482e-20
2.74866e-22
-9.07434e-20
4.95199e-22
-9.12482e-20
5.04823e-22
-9.17461e-20
4.97883e-22
-9.2024e-20
2.77845e-22
-9.23019e-20
2.77973e-22
-9.28028e-20
5.00803e-22
-9.33133e-20
5.10499e-22
-9.38167e-20
5.03495e-22
-9.40977e-20
2.80934e-22
-9.43788e-20
2.81123e-22
-9.48851e-20
5.06347e-22
-9.54014e-20
5.16259e-22
-9.59104e-20
5.08986e-22
-9.61946e-20
2.84198e-22
-9.64786e-20
2.84022e-22
-9.69909e-20
5.12249e-22
-9.75124e-20
5.21507e-22
-9.80276e-20
5.15212e-22
-9.8314e-20
2.86406e-22
-9.86024e-20
2.88455e-22
-9.91186e-20
5.16123e-22
-9.9651e-20
5.32453e-22
-1.00185e-19
5.33881e-22
-1.00705e-19
5.2019e-22
-1.00997e-19
2.92225e-22
-1.01288e-19
2.90421e-22
-1.01813e-19
5.25127e-22
-1.02347e-19
5.34296e-22
-1.02875e-19
5.27529e-22
-1.03169e-19
2.94e-22
-1.03463e-19
2.94458e-22
-1.03993e-19
5.30076e-22
-1.04534e-19
5.40436e-22
-1.05066e-19
5.32808e-22
-1.05364e-19
2.97335e-22
-1.05661e-19
2.97418e-22
-1.06197e-19
5.35778e-22
-1.06743e-19
5.46049e-22
-1.07282e-19
5.38455e-22
-1.07582e-19
3.00412e-22
-1.07882e-19
3.00557e-22
-1.08424e-19
5.41356e-22
-1.08976e-19
5.51749e-22
-1.0952e-19
5.44042e-22
-1.09823e-19
3.03531e-22
-1.10127e-19
3.03668e-22
-1.10674e-19
5.46952e-22
-1.11231e-19
5.57438e-22
-1.11781e-19
5.49635e-22
-1.12087e-19
3.06649e-22
-1.12394e-19
3.06776e-22
-1.12947e-19
5.52556e-22
-1.1351e-19
5.63113e-22
-1.14065e-19
5.55249e-22
-1.14375e-19
3.09735e-22
-1.14685e-19
3.09929e-22
-1.15243e-19
5.58095e-22
-1.15812e-19
5.68881e-22
-1.16373e-19
5.60729e-22
-1.16686e-19
3.13014e-22
-1.16998e-19
3.12807e-22
-1.17562e-19
5.64028e-22
-1.18136e-19
5.74084e-22
-1.18704e-19
5.6702e-22
-1.19019e-19
3.15131e-22
-1.19336e-19
3.17371e-22
-1.19904e-19
5.67729e-22
-1.20489e-19
5.85555e-22
-1.21076e-19
5.86982e-22
-1.21648e-19
5.71796e-22
-1.21969e-19
3.21142e-22
-1.22288e-19
3.19146e-22
-1.22865e-19
5.76934e-22
-1.23452e-19
5.86873e-22
-1.24031e-19
5.79308e-22
-1.24354e-19
3.22785e-22
-1.24678e-19
3.23274e-22
-1.25259e-19
5.81819e-22
-1.25852e-19
5.93058e-22
-1.26437e-19
5.84556e-22
-1.26763e-19
3.26141e-22
-1.27089e-19
3.26219e-22
-1.27677e-19
5.87532e-22
-1.28276e-19
5.98663e-22
-1.28866e-19
5.90208e-22
-1.29195e-19
3.29215e-22
-1.29524e-19
3.2936e-22
-1.30117e-19
5.93108e-22
-1.30722e-19
6.04365e-22
-1.31318e-19
5.95794e-22
-1.3165e-19
3.32335e-22
-1.31982e-19
3.3247e-22
-1.32581e-19
5.98706e-22
-1.33191e-19
6.10051e-22
-1.33793e-19
6.01391e-22
-1.34128e-19
3.35447e-22
-1.34464e-19
3.35585e-22
-1.35068e-19
6.04299e-22
-1.35684e-19
6.15741e-22
-1.36291e-19
6.06982e-22
-1.36629e-19
3.38566e-22
-1.36968e-19
3.38692e-22
-1.37578e-19
6.09903e-22
-1.38199e-19
6.21415e-22
-1.38812e-19
6.12597e-22
-1.39153e-19
3.4165e-22
-1.39495e-19
3.41848e-22
-1.40111e-19
6.15437e-22
-1.40738e-19
6.27191e-22
-1.41356e-19
6.18067e-22
-1.41701e-19
3.44944e-22
-1.42046e-19
3.44703e-22
-1.42667e-19
6.21404e-22
-1.43299e-19
6.32346e-22
-1.43924e-19
6.24427e-22
-1.44271e-19
3.46962e-22
-1.4462e-19
3.49414e-22
-1.45245e-19
6.24915e-22
-1.45889e-19
6.44396e-22
-1.46535e-19
6.45825e-22
-1.47164e-19
6.28981e-22
-1.47517e-19
3.53186e-22
-1.47868e-19
3.50976e-22
-1.48503e-19
6.34342e-22
-1.49148e-19
6.45134e-22
-1.49785e-19
6.36685e-22
-1.50139e-19
3.5468e-22
-1.50494e-19
3.55206e-22
-1.51134e-19
6.39156e-22
-1.51785e-19
6.51369e-22
-1.52427e-19
6.41898e-22
-1.52785e-19
3.58062e-22
-1.53143e-19
3.58133e-22
-1.53788e-19
6.44882e-22
-1.54445e-19
6.56965e-22
-1.55092e-19
6.47557e-22
-1.55454e-19
3.6113e-22
-1.55815e-19
3.61278e-22
-1.56465e-19
6.50454e-22
-1.57128e-19
6.62668e-22
-1.57781e-19
6.53141e-22
-1.58145e-19
3.64251e-22
-1.5851e-19
3.64387e-22
-1.59166e-19
6.56052e-22
-1.59834e-19
6.68356e-22
-1.60493e-19
6.58735e-22
-1.6086e-19
3.67369e-22
-1.61228e-19
3.67495e-22
-1.61889e-19
6.61656e-22
-1.62563e-19
6.74029e-22
-1.63228e-19
6.64351e-22
-1.63598e-19
3.70451e-22
-1.63969e-19
3.70654e-22
-1.64636e-19
6.67185e-22
-1.65316e-19
6.79812e-22
-1.65986e-19
6.6981e-22
-1.6636e-19
3.7376e-22
-1.66733e-19
3.73488e-22
-1.67406e-19
6.73183e-22
-1.68091e-19
6.84923e-22
-1.68767e-19
6.76234e-22
-1.69143e-19
3.75687e-22
-1.69521e-19
3.7833e-22
-1.70198e-19
6.76521e-22
-1.70895e-19
6.97498e-22
-1.71594e-19
6.98926e-22
-1.72275e-19
6.80588e-22
-1.72657e-19
3.82102e-22
-1.73037e-19
3.79701e-22
-1.73723e-19
6.86149e-22
-1.74421e-19
6.97711e-22
-1.75109e-19
6.88464e-22
-1.75492e-19
3.83465e-22
-1.75877e-19
3.84022e-22
-1.76567e-19
6.90899e-22
-1.77271e-19
7.0399e-22
-1.77965e-19
6.93646e-22
-1.78352e-19
3.86868e-22
-1.78739e-19
3.86933e-22
-1.79435e-19
6.96636e-22
-1.80145e-19
7.09579e-22
-1.80844e-19
6.9931e-22
-1.81234e-19
3.89933e-22
-1.81624e-19
3.90082e-22
-1.82327e-19
7.02206e-22
-1.83042e-19
7.15284e-22
-1.83747e-19
7.04893e-22
-1.8414e-19
3.93055e-22
-1.84533e-19
3.93189e-22
-1.85241e-19
7.07806e-22
-1.85962e-19
7.20968e-22
-1.86672e-19
7.10491e-22
-1.87068e-19
3.96166e-22
-1.87465e-19
3.96306e-22
-1.88178e-19
7.13398e-22
-1.88905e-19
7.26661e-22
-1.89621e-19
7.16081e-22
-1.9002e-19
3.99287e-22
-1.9042e-19
3.9941e-22
-1.91139e-19
7.19005e-22
-1.91871e-19
7.32331e-22
-1.92593e-19
7.21701e-22
-1.92995e-19
4.02365e-22
-1.93398e-19
4.02575e-22
-1.94122e-19
7.24527e-22
-1.9486e-19
7.38123e-22
-1.95587e-19
7.27146e-22
-1.95993e-19
4.05692e-22
-1.96398e-19
4.05383e-22
-1.97129e-19
7.3056e-22
-1.97872e-19
7.43183e-22
-1.98606e-19
7.33642e-22
-1.99013e-19
4.07516e-22
-1.99424e-19
4.10374e-22
-2.00157e-19
7.33706e-22
-2.00914e-19
7.5634e-22
-2.01672e-19
7.57768e-22
-2.02409e-19
7.37774e-22
-2.02823e-19
4.14145e-22
-2.03235e-19
4.11532e-22
-2.03979e-19
7.43556e-22
-2.04735e-19
7.55973e-22
-2.0548e-19
7.4584e-22
-2.05896e-19
4.15362e-22
-2.06312e-19
4.15952e-22
-2.0706e-19
7.48237e-22
-2.07822e-19
7.623e-22
-2.08573e-19
7.50989e-22
-2.08992e-19
4.18787e-22
-2.09411e-19
4.18849e-22
-2.10165e-19
7.53984e-22
-2.10933e-19
7.67882e-22
-2.11689e-19
7.56657e-22
-2.12111e-19
4.2185e-22
-2.12533e-19
4.21998e-22
-2.13293e-19
7.59554e-22
-2.14066e-19
7.73586e-22
-2.14829e-19
7.62241e-22
-2.15254e-19
4.24971e-22
-2.15679e-19
4.25108e-22
-2.16444e-19
7.6515e-22
-2.17223e-19
7.79276e-22
-2.17991e-19
7.67833e-22
-2.18419e-19
4.2809e-22
-2.18847e-19
4.28213e-22
-2.19618e-19
7.70758e-22
-2.20403e-19
7.84945e-22
-2.21176e-19
7.73455e-22
-2.21608e-19
4.31166e-22
-2.22039e-19
4.31382e-22
-2.22815e-19
7.76275e-22
-2.23606e-19
7.90745e-22
-2.24385e-19
7.7889e-22
-2.24819e-19
4.34508e-22
-2.25254e-19
4.34168e-22
-2.26036e-19
7.82339e-22
-2.26832e-19
7.9576e-22
-2.27617e-19
7.85449e-22
-2.28053e-19
4.36241e-22
-2.28493e-19
4.39291e-22
-2.29278e-19
7.85313e-22
-2.30087e-19
8.09442e-22
-2.30898e-19
8.10869e-22
-2.31688e-19
7.8938e-22
-2.32131e-19
4.43061e-22
-2.32571e-19
4.40257e-22
-2.33366e-19
7.95363e-22
-2.34175e-19
8.0855e-22
-2.34972e-19
7.97619e-22
-2.35417e-19
4.44146e-22
-2.35861e-19
4.44768e-22
-2.36661e-19
7.9998e-22
-2.37476e-19
8.14921e-22
-2.38279e-19
8.02737e-22
-2.38727e-19
4.47593e-22
-2.39174e-19
4.47649e-22
-2.3998e-19
8.05738e-22
-2.408e-19
8.20496e-22
-2.41609e-19
8.08411e-22
-2.4206e-19
4.50652e-22
-2.4251e-19
4.50801e-22
-2.43322e-19
8.11306e-22
-2.44148e-19
8.26202e-22
-2.44962e-19
8.13993e-22
-2.45416e-19
4.53775e-22
-2.4587e-19
4.53909e-22
-2.46686e-19
8.16905e-22
-2.47518e-19
8.31888e-22
-2.48338e-19
8.1959e-22
-2.48795e-19
4.56887e-22
-2.49252e-19
4.57025e-22
-2.50074e-19
8.22498e-22
-2.50912e-19
8.37579e-22
-2.51737e-19
8.25181e-22
-2.52197e-19
4.60007e-22
-2.52657e-19
4.6013e-22
-2.53485e-19
8.28105e-22
-2.54329e-19
8.43248e-22
-2.55159e-19
8.30803e-22
-2.55622e-19
4.63081e-22
-2.56086e-19
4.63301e-22
-2.56919e-19
8.33618e-22
-2.57768e-19
8.49054e-22
-2.58605e-19
8.36228e-22
-2.59071e-19
4.66439e-22
-2.59537e-19
4.66065e-22
-2.60377e-19
8.39715e-22
-2.61231e-19
8.54022e-22
-2.62074e-19
8.42856e-22
-2.62542e-19
4.68072e-22
-2.63013e-19
4.71333e-22
-2.63856e-19
8.42499e-22
-2.64724e-19
8.68283e-22
-2.65594e-19
8.69712e-22
-2.6644e-19
8.46565e-22
-2.66915e-19
4.75105e-22
-2.67387e-19
4.72086e-22
-2.6824e-19
8.52772e-22
-2.69107e-19
8.6681e-22
-2.69962e-19
8.54997e-22
-2.70438e-19
4.76041e-22
-2.70915e-19
4.76701e-22
-2.71772e-19
8.57317e-22
-2.72645e-19
8.73232e-22
-2.73505e-19
8.60078e-22
-2.73985e-19
4.79515e-22
-2.74464e-19
4.79563e-22
-2.75327e-19
8.63087e-22
-2.76206e-19
8.78797e-22
-2.77072e-19
8.6576e-22
-2.77555e-19
4.82568e-22
-2.78037e-19
4.82719e-22
-2.78906e-19
8.68653e-22
-2.7979e-19
8.84506e-22
-2.80662e-19
8.7134e-22
-2.81148e-19
4.85691e-22
-2.81633e-19
4.85827e-22
-2.82508e-19
8.74251e-22
-2.83398e-19
8.90193e-22
-2.84275e-19
8.76933e-22
-2.84764e-19
4.8881e-22
-2.85252e-19
4.88933e-22
-2.86132e-19
8.79858e-22
-2.87028e-19
8.95862e-22
-2.87911e-19
8.82557e-22
-2.88403e-19
4.91882e-22
-2.88895e-19
4.92107e-22
-2.8978e-19
8.85366e-22
-2.90682e-19
9.01676e-22
-2.9157e-19
8.87971e-22
-2.92065e-19
4.95255e-22
-2.9256e-19
4.94849e-22
-2.93451e-19
8.91494e-22
-2.94358e-19
9.06599e-22
-2.95253e-19
8.94663e-22
-2.95749e-19
4.96797e-22
-2.9625e-19
5.0025e-22
-2.97144e-19
8.94106e-22
-2.98065e-19
9.21385e-22
-2.98988e-19
9.22814e-22
-2.99886e-19
8.98171e-22
-3.0039e-19
5.04022e-22
-3.00891e-19
5.00811e-22
-3.01796e-19
9.04579e-22
-3.02715e-19
9.19387e-22
-3.03622e-19
9.06776e-22
-3.04127e-19
5.04826e-22
-3.04632e-19
5.05517e-22
-3.05541e-19
9.0906e-22
-3.06467e-19
9.25854e-22
-3.07379e-19
9.11826e-22
-3.07887e-19
5.08321e-22
-3.08395e-19
5.08364e-22
-3.0931e-19
9.14841e-22
-3.10242e-19
9.31411e-22
-3.11159e-19
9.17513e-22
-3.11671e-19
5.1137e-22
-3.12182e-19
5.11523e-22
-3.13103e-19
9.20404e-22
-3.1404e-19
9.37122e-22
-3.14963e-19
9.23091e-22
-3.15477e-19
5.14496e-22
-3.15992e-19
5.14628e-22
-3.16918e-19
9.26006e-22
-3.17861e-19
9.42805e-22
-3.18789e-19
9.28691e-22
-3.19307e-19
5.17605e-22
-3.19825e-19
5.17746e-22
-3.20756e-19
9.31596e-22
-3.21705e-19
9.48498e-22
-3.22639e-19
9.34279e-22
-3.2316e-19
5.20728e-22
-3.23681e-19
5.20848e-22
-3.24618e-19
9.37208e-22
-3.25572e-19
9.54163e-22
-3.26512e-19
9.39907e-22
-3.27036e-19
5.23795e-22
-3.2756e-19
5.24028e-22
-3.28502e-19
9.42708e-22
-3.29462e-19
9.59987e-22
-3.30408e-19
9.45307e-22
-3.30935e-19
5.27187e-22
-3.31462e-19
5.26744e-22
-3.32411e-19
9.48872e-22
-3.33375e-19
9.64859e-22
-3.34328e-19
9.52072e-22
-3.34856e-19
5.28626e-22
-3.35388e-19
5.32294e-22
-3.3634e-19
9.5129e-22
-3.3732e-19
9.80228e-22
-3.38302e-19
9.81655e-22
-3.39257e-19
9.55358e-22
-3.39793e-19
5.36064e-22
-3.40326e-19
5.32643e-22
-3.41288e-19
9.61986e-22
-3.42265e-19
9.77649e-22
-3.43229e-19
9.64152e-22
-3.43766e-19
5.36723e-22
-3.44304e-19
5.37447e-22
-3.4527e-19
9.66398e-22
-3.46254e-19
9.84163e-22
-3.47223e-19
9.6917e-22
-3.47764e-19
5.4024e-22
-3.48304e-19
5.40279e-22
-3.49276e-19
9.72189e-22
-3.50266e-19
9.89714e-22
-3.51241e-19
9.7486e-22
-3.51784e-19
5.43288e-22
-3.52327e-19
5.43439e-22
-3.53305e-19
9.77753e-22
-3.54301e-19
9.95424e-22
-3.55281e-19
9.8044e-22
-3.55827e-19
5.4641e-22
-3.56374e-19
5.46548e-22
-3.57357e-19
9.83349e-22
-3.58358e-19
1.00111e-21
-3.59344e-19
9.86031e-22
-3.59894e-19
5.49531e-22
-3.60444e-19
5.4965e-22
-3.61433e-19
9.88961e-22
-3.62439e-19
1.00678e-21
-3.63431e-19
9.9166e-22
-3.63984e-19
5.52596e-22
-3.64536e-19
5.52834e-22
-3.65531e-19
9.94455e-22
-3.66543e-19
1.01261e-21
-3.67541e-19
9.97051e-22
-3.68097e-19
5.56003e-22
-3.68652e-19
5.55529e-22
-3.69653e-19
1.00065e-21
-3.7067e-19
1.01744e-21
-3.71674e-19
1.00388e-21
-3.72231e-19
5.57351e-22
-3.72793e-19
5.6121e-22
-3.73796e-19
1.0029e-21
-3.74829e-19
1.03333e-21
-3.75864e-19
1.03476e-21
-3.76871e-19
1.00696e-21
-3.77436e-19
5.6498e-22
-3.77997e-19
5.61368e-22
-3.79011e-19
1.01379e-21
-3.80041e-19
1.03023e-21
-3.81057e-19
1.01593e-21
-3.81622e-19
5.65508e-22
-3.82189e-19
5.66263e-22
-3.83207e-19
1.01814e-21
-3.84244e-19
1.03678e-21
-3.85264e-19
1.02092e-21
-3.85834e-19
5.69046e-22
-3.86403e-19
5.6908e-22
-3.87427e-19
1.02394e-21
-3.88469e-19
1.04233e-21
-3.89495e-19
1.02661e-21
-3.90068e-19
5.7209e-22
-3.9064e-19
5.72243e-22
-3.91669e-19
1.0295e-21
-3.92717e-19
1.04804e-21
-3.9375e-19
1.03219e-21
-3.94325e-19
5.75215e-22
-3.949e-19
5.75349e-22
-3.95935e-19
1.0351e-21
-3.96989e-19
1.05372e-21
-3.98027e-19
1.03779e-21
-3.98605e-19
5.78326e-22
-3.99184e-19
5.78465e-22
-4.00224e-19
1.0407e-21
-4.01284e-19
1.05942e-21
-4.02327e-19
1.04338e-21
-4.02908e-19
5.81448e-22
-4.0349e-19
5.81568e-22
-4.04536e-19
1.04631e-21
-4.05601e-19
1.06508e-21
-4.0665e-19
1.04901e-21
-4.07235e-19
5.84512e-22
-4.0782e-19
5.84754e-22
-4.08871e-19
1.0518e-21
-4.09942e-19
1.07092e-21
-4.10997e-19
1.05439e-21
-4.11585e-19
5.87933e-22
-4.12172e-19
5.87426e-22
-4.1323e-19
1.05803e-21
-4.14306e-19
1.0757e-21
-4.15367e-19
1.06129e-21
-4.15956e-19
5.89183e-22
-4.1655e-19
5.93252e-22
-4.1761e-19
1.06008e-21
-4.18702e-19
1.09217e-21
-4.19795e-19
1.0936e-21
-4.2086e-19
1.06415e-21
-4.21457e-19
5.97025e-22
-4.2205e-19
5.93197e-22
-4.23121e-19
1.0712e-21
-4.24209e-19
1.08849e-21
-4.25283e-19
1.07331e-21
-4.2588e-19
5.97403e-22
-4.26478e-19
5.98195e-22
-4.27554e-19
1.07548e-21
-4.28649e-19
1.0951e-21
-4.29727e-19
1.07826e-21
-4.30328e-19
6.00967e-22
-4.30929e-19
6.00994e-22
-4.3201e-19
1.08129e-21
-4.33111e-19
1.10063e-21
-4.34195e-19
1.08396e-21
-4.34799e-19
6.04005e-22
-4.35403e-19
6.04161e-22
-4.3649e-19
1.08685e-21
-4.37596e-19
1.10634e-21
-4.38686e-19
1.08954e-21
-4.39293e-19
6.07131e-22
-4.399e-19
6.07267e-22
-4.40993e-19
1.09245e-21
-4.42105e-19
1.11203e-21
-4.432e-19
1.09513e-21
-4.4381e-19
6.10251e-22
-4.44421e-19
6.1037e-22
-4.45519e-19
1.09806e-21
-4.46636e-19
1.11769e-21
-4.47737e-19
1.10076e-21
-4.4835e-19
6.13313e-22
-4.48964e-19
6.1356e-22
-4.50068e-19
1.10355e-21
-4.51191e-19
1.12354e-21
-4.52297e-19
1.10613e-21
-4.52914e-19
6.16749e-22
-4.5353e-19
6.16211e-22
-4.5464e-19
1.10981e-21
-4.55768e-19
1.12828e-21
-4.56881e-19
1.11309e-21
-4.57499e-19
6.17908e-22
-4.58121e-19
6.22169e-22
-4.59233e-19
1.11169e-21
-4.60378e-19
1.14527e-21
-4.61525e-19
1.1467e-21
-4.62641e-19
1.11576e-21
-4.63267e-19
6.25941e-22
-4.63889e-19
6.21922e-22
-4.65012e-19
1.12301e-21
-4.66153e-19
1.14106e-21
-4.67278e-19
1.12509e-21
-4.67904e-19
6.26187e-22
-4.68531e-19
6.27011e-22
-4.69658e-19
1.12722e-21
-4.70806e-19
1.14772e-21
-4.71936e-19
1.13001e-21
-4.72566e-19
6.29774e-22
-4.73196e-19
6.29794e-22
-4.74329e-19
1.13305e-21
-4.75482e-19
1.15324e-21
-4.76618e-19
1.13572e-21
-4.7725e-19
6.32808e-22
-4.77883e-19
6.32964e-22
-4.79022e-19
1.1386e-21
-4.80181e-19
1.15896e-21
-4.81322e-19
1.14129e-21
-4.81958e-19
6.35936e-22
-4.82594e-19
6.36067e-22
-4.83738e-19
1.14421e-21
-4.84903e-19
1.16464e-21
-4.8605e-19
1.14689e-21
-4.86689e-19
6.39045e-22
-4.87328e-19
6.39186e-22
-4.88478e-19
1.14979e-21
-4.89648e-19
1.17034e-21
-4.90801e-19
1.15248e-21
-4.91443e-19
6.4217e-22
-4.92085e-19
6.42285e-22
-4.93241e-19
1.15541e-21
-4.94417e-19
1.176e-21
-4.95575e-19
1.15811e-21
-4.9622e-19
6.45226e-22
-4.96865e-19
6.45481e-22
-4.98026e-19
1.16089e-21
-4.99208e-19
1.18185e-21
-5.00372e-19
1.16347e-21
-5.0102e-19
6.48681e-22
-5.01668e-19
6.48106e-22
-5.02836e-19
1.16718e-21
-5.04022e-19
1.18654e-21
-5.05193e-19
1.1705e-21
-5.05842e-19
6.49737e-22
-5.06497e-19
6.54213e-22
-5.07665e-19
1.16887e-21
-5.0887e-19
1.20412e-21
-5.10075e-19
1.20554e-21
-5.11248e-19
1.17294e-21
-5.11906e-19
6.57983e-22
-5.1256e-19
6.53753e-22
-5.1374e-19
1.18042e-21
-5.1494e-19
1.19933e-21
-5.16122e-19
1.18246e-21
-5.1678e-19
6.58085e-22
-5.17439e-19
6.58941e-22
-5.18624e-19
1.18456e-21
-5.1983e-19
1.20603e-21
-5.21017e-19
1.18735e-21
-5.21679e-19
6.61693e-22
-5.2234e-19
6.6171e-22
-5.23531e-19
1.19039e-21
-5.24742e-19
1.21155e-21
-5.25935e-19
1.19306e-21
-5.266e-19
6.64725e-22
-5.27265e-19
6.6488e-22
-5.28461e-19
1.19595e-21
-5.29678e-19
1.21726e-21
-5.30877e-19
1.19864e-21
-5.31545e-19
6.6785e-22
-5.32213e-19
6.67988e-22
-5.33414e-19
1.20155e-21
-5.34637e-19
1.22295e-21
-5.35841e-19
1.20423e-21
-5.36512e-19
6.70973e-22
-5.37183e-19
6.71088e-22
-5.38391e-19
1.20716e-21
-5.39619e-19
1.22861e-21
-5.40829e-19
1.20987e-21
-5.41503e-19
6.74027e-22
-5.42177e-19
6.74287e-22
-5.4339e-19
1.21264e-21
-5.44625e-19
1.23447e-21
-5.4584e-19
1.21521e-21
-5.46517e-19
6.77497e-22
-5.47194e-19
6.7689e-22
-5.48413e-19
1.21896e-21
-5.49652e-19
1.23911e-21
-5.50874e-19
1.22231e-21
-5.51553e-19
6.78462e-22
-5.52236e-19
6.8313e-22
-5.53457e-19
1.22048e-21
-5.54714e-19
1.25722e-21
-5.55972e-19
1.25864e-21
-5.57197e-19
1.22455e-21
-5.57884e-19
6.869e-22
-5.58566e-19
6.82478e-22
-5.59799e-19
1.23222e-21
-5.6105e-19
1.2519e-21
-5.62285e-19
1.23424e-21
-5.62972e-19
6.86869e-22
-5.63659e-19
6.87757e-22
-5.64896e-19
1.2363e-21
-5.66154e-19
1.25865e-21
-5.67393e-19
1.2391e-21
-5.68084e-19
6.90499e-22
-5.68774e-19
6.90511e-22
-5.70017e-19
1.24215e-21
-5.71281e-19
1.26416e-21
-5.72526e-19
1.24482e-21
-5.73219e-19
6.93527e-22
-5.73913e-19
6.93684e-22
-5.7516e-19
1.2477e-21
-5.7643e-19
1.26988e-21
-5.77681e-19
1.25039e-21
-5.78377e-19
6.96655e-22
-5.79074e-19
6.96788e-22
-5.80327e-19
1.2533e-21
-5.81603e-19
1.27556e-21
-5.82859e-19
1.25599e-21
-5.83559e-19
6.99766e-22
-5.84259e-19
6.99905e-22
-5.85518e-19
1.2589e-21
-5.86799e-19
1.28125e-21
-5.8806e-19
1.26158e-21
-5.88763e-19
7.02889e-22
-5.89466e-19
7.03005e-22
-5.90731e-19
1.26451e-21
-5.92018e-19
1.28691e-21
-5.93285e-19
1.26721e-21
-5.93991e-19
7.05942e-22
-5.94697e-19
7.06206e-22
-5.95967e-19
1.26998e-21
-5.9726e-19
1.29278e-21
-5.98532e-19
1.27255e-21
-5.99242e-19
7.09427e-22
-5.99951e-19
7.08788e-22
-6.01227e-19
1.27634e-21
-6.02524e-19
1.29737e-21
-6.03804e-19
1.27971e-21
-6.04514e-19
7.10293e-22
-6.05229e-19
7.15171e-22
-6.06507e-19
1.27767e-21
-6.07823e-19
1.31606e-21
-6.09141e-19
1.31749e-21
-6.10422e-19
1.28173e-21
-6.11141e-19
7.18944e-22
-6.11856e-19
7.14307e-22
-6.13145e-19
1.28963e-21
-6.14455e-19
1.31016e-21
-6.15747e-19
1.29162e-21
-6.16466e-19
7.18764e-22
-6.17186e-19
7.1969e-22
-6.18479e-19
1.29364e-21
-6.19796e-19
1.31696e-21
-6.21093e-19
1.29644e-21
-6.21815e-19
7.2242e-22
-6.22537e-19
7.22424e-22
-6.23837e-19
1.2995e-21
-6.25159e-19
1.32246e-21
-6.26462e-19
1.30216e-21
-6.27187e-19
7.25443e-22
-6.27913e-19
7.25602e-22
-6.29218e-19
1.30505e-21
-6.30546e-19
1.32818e-21
-6.31854e-19
1.30774e-21
-6.32582e-19
7.28571e-22
-6.33311e-19
7.28706e-22
-6.34621e-19
1.31065e-21
-6.35955e-19
1.33387e-21
-6.37269e-19
1.31333e-21
-6.38e-19
7.31692e-22
-6.38732e-19
7.31808e-22
-6.40048e-19
1.31626e-21
-6.41388e-19
1.33953e-21
-6.42707e-19
1.31897e-21