/*--------------------------------*- C++ -*----------------------------------*\
| =========                 |                                                 |
| \\      /  F ield         | OpenFOAM: The Open Source CFD Toolbox           |
|  \\    /   O peration     | Version:  2206                                  |
|   \\  /    A nd           | Website:  www.openfoam.com                      |
|    \\/     M anipulation  |                                                 |
\*---------------------------------------------------------------------------*/
FoamFile
{
    version     2.0;
    format      ascii;
    arch        "LSB;label=32;scalar=64";
    class       volScalarField;
    location    "3500";
    object      p;
}
// * * * * * * * * * * * * * * * * * * * * * * * * * * * * * * * * * * * * * //

dimensions      [0 2 -2 0 0 0 0];

internalField   nonuniform List<scalar> 
100
(
-1.03236169e-09
0.039029498
0.0573900273
0.0749318688
0.088691027
0.100133953
0.109677063
0.117727006
0.12457836
0.130457485
0.135539753
0.139962799
0.143835836
0.14724641
0.150265354
0.152950471
0.155349301
0.157501234
0.159439124
0.161190549
0.162778794
0.164223628
0.165541918
0.166748132
0.167854729
0.168872488
0.169810772
0.170677744
0.171480549
0.172225458
0.172917998
0.173563052
0.174164949
0.174727535
0.175254238
0.175748123
0.176211932
0.176648129
0.17705893
0.177446334
0.177812148
0.178158008
0.178485396
0.178795661
0.179090031
0.179369627
0.17963547
0.179888497
0.180129566
0.180359464
0.180578915
0.180788585
0.180989088
0.18118099
0.181364815
0.181541047
0.181710135
0.181872494
0.182028511
0.182178544
0.182322928
0.182461974
0.18259597
0.182725189
0.182849882
0.182970287
0.183086623
0.183199098
0.183307906
0.183413229
0.183515238
0.183614094
0.183709947
0.183802941
0.183893208
0.183980875
0.184066062
0.184148879
0.184229434
0.184307827
0.184384153
0.1844585
0.184530955
0.184601598
0.184670504
0.184737748
0.184803396
0.184867515
0.184930166
0.184991408
0.185051298
0.18510989
0.185167236
0.185223366
0.185278288
0.185332126
0.185385505
0.185439053
0.185488347
0.185516911
)
;

boundaryField
{
    left
    {
        type            wedge;
    }
    right
    {
        type            wedge;
    }
    outerWall
    {
        type            zeroGradient;
    }
    innerWall
    {
        type            zeroGradient;
    }
    frontAndBack
    {
        type            empty;
    }
}


// ************************************************************************* //
