/*--------------------------------*- C++ -*----------------------------------*\
| =========                 |                                                 |
| \\      /  F ield         | OpenFOAM: The Open Source CFD Toolbox           |
|  \\    /   O peration     | Version:  2206                                  |
|   \\  /    A nd           | Website:  www.openfoam.com                      |
|    \\/     M anipulation  |                                                 |
\*---------------------------------------------------------------------------*/
FoamFile
{
    version     2.0;
    format      ascii;
    arch        "LSB;label=32;scalar=64";
    class       surfaceScalarField;
    location    "3500";
    object      phi;
}
// * * * * * * * * * * * * * * * * * * * * * * * * * * * * * * * * * * * * * //

dimensions      [0 3 -1 0 0 0 0];

oriented        oriented;

internalField   nonuniform List<scalar> 
99
(
2.91919858e-10
5.61061875e-10
8.10394727e-10
1.04267379e-09
1.26006208e-09
1.46434983e-09
1.65701387e-09
1.83930449e-09
2.01227199e-09
2.17682667e-09
2.33374061e-09
2.48369868e-09
2.6272835e-09
2.76502467e-09
2.89737079e-09
3.02474191e-09
3.14748907e-09
3.26595245e-09
3.38040995e-09
3.4911433e-09
3.59837398e-09
3.70233981e-09
3.80321782e-09
3.90121291e-09
3.99646646e-09
4.08915809e-09
4.17939962e-09
4.26735203e-09
4.35310246e-09
4.43679726e-09
4.51850242e-09
4.59835395e-09
4.6763994e-09
4.75276677e-09
4.8274873e-09
4.90068374e-09
4.97237284e-09
5.04267343e-09
5.11158894e-09
5.17923637e-09
5.24560701e-09
5.31081672e-09
5.37484543e-09
5.43780937e-09
5.49967796e-09
5.56056804e-09
5.62043915e-09
5.67940992e-09
5.73743045e-09
5.7946214e-09
5.85092407e-09
5.90646149e-09
5.96116675e-09
6.0151653e-09
6.06838294e-09
6.1209472e-09
6.17277717e-09
6.22400265e-09
6.27453741e-09
6.32451179e-09
6.37383513e-09
6.42263867e-09
6.47082934e-09
6.51853633e-09
6.56566515e-09
6.612344e-09
6.65847886e-09
6.70419327e-09
6.74939466e-09
6.79420333e-09
6.83852945e-09
6.88248739e-09
6.92599025e-09
6.96914854e-09
7.01187877e-09
7.05428535e-09
7.0962879e-09
7.13798722e-09
7.17930646e-09
7.22034033e-09
7.26101521e-09
7.30142224e-09
7.34149282e-09
7.38130968e-09
7.42081067e-09
7.46007145e-09
7.49903916e-09
7.53777689e-09
7.57624233e-09
7.61448809e-09
7.65248343e-09
7.69026681e-09
7.72781935e-09
7.76516815e-09
7.80230485e-09
7.83924631e-09
7.87599235e-09
7.91255158e-09
7.94893151e-09
)
;

boundaryField
{
    left
    {
        type            wedge;
        value           nonuniform List<scalar> 
100
(
1.34079874e-05
1.23618623e-05
1.14520883e-05
1.06687061e-05
9.98485244e-06
9.38302742e-06
8.8492555e-06
8.37266302e-06
7.94458292e-06
7.55801448e-06
7.20724263e-06
6.88755553e-06
6.59503379e-06
6.32639134e-06
6.07885194e-06
5.85005367e-06
5.6379755e-06
5.44087696e-06
5.25725105e-06
5.08578732e-06
4.92533994e-06
4.7749026e-06
4.63358878e-06
4.5006136e-06
4.37527965e-06
4.25696594e-06
4.14511692e-06
4.0392341e-06
3.93886962e-06
3.84361928e-06
3.75311734e-06
3.66703275e-06
3.58506443e-06
3.506938e-06
3.43240348e-06
3.36123203e-06
3.29321379e-06
3.2281565e-06
3.16588308e-06
3.10623054e-06
3.04904819e-06
2.99419719e-06
2.94154881e-06
2.89098353e-06
2.84239079e-06
2.79566762e-06
2.750718e-06
2.70745281e-06
2.66578872e-06
2.62564769e-06
2.5869571e-06
2.54964878e-06
2.51365865e-06
2.47892695e-06
2.44539736e-06
2.4130168e-06
2.38173561e-06
2.35150688e-06
2.32228623e-06
2.29403209e-06
2.26670506e-06
2.24026774e-06
2.21468507e-06
2.18992365e-06
2.16595196e-06
2.1427399e-06
2.12025922e-06
2.09848297e-06
2.07738537e-06
2.05694223e-06
2.03713039e-06
2.01792766e-06
1.99931318e-06
1.98126695e-06
1.96376974e-06
1.9468035e-06
1.93035084e-06
1.91439503e-06
1.89892033e-06
1.88391157e-06
1.86935412e-06
1.85523421e-06
1.84153853e-06
1.82825421e-06
1.81536914e-06
1.80287162e-06
1.79075026e-06
1.7789944e-06
1.76759362e-06
1.756538e-06
1.74581784e-06
1.73542405e-06
1.72534775e-06
1.7155803e-06
1.70611355e-06
1.69693949e-06
1.68805017e-06
1.67943789e-06
1.67109473e-06
1.66301131e-06
)
;
    }
    right
    {
        type            wedge;
        value           nonuniform List<scalar> 
100
(
-1.34082793e-05
-1.23621315e-05
-1.14523376e-05
-1.06689384e-05
-9.98506983e-06
-9.38323171e-06
-8.84944816e-06
-8.37284531e-06
-7.94475589e-06
-7.55817903e-06
-7.20739954e-06
-6.88770548e-06
-6.59517738e-06
-6.32652907e-06
-6.07898429e-06
-5.85018104e-06
-5.63809825e-06
-5.44099542e-06
-5.25736551e-06
-5.08589805e-06
-4.92544717e-06
-4.77500656e-06
-4.63368966e-06
-4.50071159e-06
-4.37537491e-06
-4.25705862e-06
-4.14520717e-06
-4.03932204e-06
-3.93895537e-06
-3.84370296e-06
-3.75319906e-06
-3.66711259e-06
-3.58514249e-06
-3.50701435e-06
-3.4324782e-06
-3.36130521e-06
-3.29328549e-06
-3.22822679e-06
-3.16595201e-06
-3.10629816e-06
-3.04911457e-06
-2.99426238e-06
-2.94161285e-06
-2.89104647e-06
-2.84245267e-06
-2.79572848e-06
-2.75077789e-06
-2.70751176e-06
-2.66584676e-06
-2.62570486e-06
-2.58701343e-06
-2.54970429e-06
-2.51371338e-06
-2.47898092e-06
-2.4454506e-06
-2.41306933e-06
-2.38178746e-06
-2.35155808e-06
-2.32233679e-06
-2.29408204e-06
-2.26675441e-06
-2.24031652e-06
-2.21473329e-06
-2.18997133e-06
-2.16599911e-06
-2.14278655e-06
-2.12030539e-06
-2.09852865e-06
-2.0774306e-06
-2.05698702e-06
-2.03717474e-06
-2.01797159e-06
-1.99935671e-06
-1.98131008e-06
-1.9638125e-06
-1.94684589e-06
-1.93039286e-06
-1.91443671e-06
-1.89896167e-06
-1.88395259e-06
-1.86939482e-06
-1.8552746e-06
-1.84157862e-06
-1.82829401e-06
-1.81540867e-06
-1.80291087e-06
-1.79078925e-06
-1.77903313e-06
-1.76763211e-06
-1.75657625e-06
-1.74585585e-06
-1.73546183e-06
-1.72538532e-06
-1.71561765e-06
-1.70615069e-06
-1.69697644e-06
-1.68808692e-06
-1.67947445e-06
-1.67113111e-06
-1.66304752e-06
)
;
    }
    outerWall
    {
        type            calculated;
        value           uniform 7.98513839e-09;
    }
    innerWall
    {
        type            calculated;
        value           uniform 0;
    }
    frontAndBack
    {
        type            empty;
        value           nonuniform List<scalar> 0();
    }
}


// ************************************************************************* //
