/*--------------------------------*- C++ -*----------------------------------*\
| =========                 |                                                 |
| \\      /  F ield         | OpenFOAM: The Open Source CFD Toolbox           |
|  \\    /   O peration     | Version:  2206                                  |
|   \\  /    A nd           | Website:  www.openfoam.com                      |
|    \\/     M anipulation  |                                                 |
\*---------------------------------------------------------------------------*/
FoamFile
{
    version     2.0;
    format      ascii;
    arch        "LSB;label=32;scalar=64";
    class       volVectorField;
    location    "3500";
    object      U;
}
// * * * * * * * * * * * * * * * * * * * * * * * * * * * * * * * * * * * * * //

dimensions      [0 1 -1 0 0 0 0];

internalField   nonuniform List<vector> 
100
(
(0.0121923818 0.595923524 0)
(-0.00388185616 0.549428065 0)
(0.000920026179 0.508992781 0)
(-0.000141120842 0.47417504 0)
(8.93581229e-05 0.443780881 0)
(7.22694756e-05 0.41703252 0)
(8.95800041e-05 0.393308807 0)
(9.96546661e-05 0.372126457 0)
(0.00010816017 0.353100261 0)
(0.000114989035 0.335919068 7.34808837e-20)
(0.00012051719 0.320328868 -7.75691611e-20)
(0.000124981518 0.306120242 0)
(0.000128576049 0.293118996 0)
(0.00013145433 0.281179072 8.71038496e-20)
(0.000133739291 0.270177075 0)
(0.000135530279 0.260008048 0)
(0.000136908164 0.250582146 0)
(0.000137939255 0.241822015 0)
(0.000138678234 0.233660691 0)
(0.000139170499 0.226039915 0)
(0.000139453884 0.21890876 0)
(0.000139560124 0.212222515 0)
(0.000139515901 0.205941764 0)
(0.000139343796 0.200031623 0)
(0.000139062941 0.194461108 0)
(0.000138689642 0.189202607 0)
(0.00013823779 0.184231427 0)
(0.000137719315 0.179525425 0)
(0.00013714443 0.175064684 0)
(0.000136521946 0.17083124 0)
(0.000135859433 0.166808848 0)
(0.000135163463 0.162982783 0)
(0.000134439696 0.159339664 0)
(0.000133693064 0.155867306 0)
(0.000132927814 0.152554588 0)
(0.000132147674 0.149391341 0)
(0.000131355853 0.146368245 0)
(0.000130555172 0.143476747 0)
(0.000129748057 0.140708979 0)
(0.000128936651 0.138057694 0)
(0.000128122796 0.135516204 0)
(0.000127308119 0.133078329 0)
(0.000126494007 0.130738347 0)
(0.000125681697 0.128490955 0)
(0.00012487224 0.126331231 0)
(0.000124066567 0.124254597 0)
(0.00012326546 0.122256796 0)
(0.000122469623 0.120333857 0)
(0.000121679634 0.118482076 0)
(0.000120896017 0.116697994 0)
(0.000120119192 0.114978375 0)
(0.00011934954 0.113320189 0)
(0.000118587362 0.111720595 0)
(0.000117832927 0.110176931 0)
(0.000117086443 0.108686692 0)
(0.000116348093 0.107247527 0)
(0.000115618007 0.105857221 0)
(0.000114896303 0.104513691 0)
(0.000114183063 0.103214969 0)
(0.000113478344 0.101959202 0)
(0.000112782179 0.100744639 0)
(0.000112094587 0.0995696236 0)
(0.000111415578 0.0984325911 0)
(0.000110745131 0.0973320598 0)
(0.000110083219 0.0962666257 0)
(0.000109429805 0.0952349584 0)
(0.000108784856 0.0942357956 7.34488047e-20)
(0.000108148303 0.0932679387 0)
(0.000107520089 0.0923302495 0)
(0.000106900137 0.0914216458 0)
(0.000106288388 0.0905410981 0)
(0.000105684748 0.0896876268 7.02093114e-20)
(0.000105089139 0.0888602987 0)
(0.000104501467 0.0880582244 0)
(0.000103921659 0.087280556 0)
(0.000103349607 0.0865264844 -6.77653841e-20)
(0.000102785223 0.0857952371 0)
(0.000102228404 0.0850860763 0)
(0.000101679068 0.084398297 0)
(0.000101137101 0.0837312249 0)
(0.000100602411 0.0830842149 0)
(0.00010007489 0.0824566496 0)
(9.95544606e-05 0.0818479375 0)
(9.90410035e-05 0.0812575121 -6.32588137e-20)
(9.85344304e-05 0.0806848302 0)
(9.80346321e-05 0.0801293708 0)
(9.75415516e-05 0.0795906339 0)
(9.70550809e-05 0.0790681398 6.11860158e-20)
(9.65750531e-05 0.0785614275 0)
(9.61010069e-05 0.0780700541 0)
(9.56329534e-05 0.077593594 0)
(9.51744844e-05 0.0771316375 5.92254702e-20)
(9.47335994e-05 0.0766837907 0)
(9.4292004e-05 0.0762496737 0)
(9.37248638e-05 0.0758289201 0)
(9.29173276e-05 0.0754211738 5.7370727e-20)
(9.28504031e-05 0.0750260859 0)
(9.70309534e-05 0.0746433094 0)
(0.000103906223 0.0742724926 0)
(7.55556175e-05 0.0739132236 0)
)
;

boundaryField
{
    left
    {
        type            wedge;
    }
    right
    {
        type            wedge;
    }
    outerWall
    {
        type            navierSlip;
        value           uniform (0 0.0737475668 0);
        slipLength      uniform 1;
        wallVelocity    uniform (0 0 0);
    }
    innerWall
    {
        type            rotatingWallVelocity;
        origin          (0 0 0);
        axis            (0 0 1);
        omega           constant 12.566;
        value           uniform (0 0.628204307 -0);
    }
    frontAndBack
    {
        type            empty;
    }
}


// ************************************************************************* //
