/*--------------------------------*- C++ -*----------------------------------*\
| =========                 |                                                 |
| \\      /  F ield         | OpenFOAM: The Open Source CFD Toolbox           |
|  \\    /   O peration     | Version:  2206                                  |
|   \\  /    A nd           | Website:  www.openfoam.com                      |
|    \\/     M anipulation  |                                                 |
\*---------------------------------------------------------------------------*/
FoamFile
{
    version     2.0;
    format      ascii;
    arch        "LSB;label=32;scalar=64";
    class       volVectorField;
    location    "410";
    object      U;
}
// * * * * * * * * * * * * * * * * * * * * * * * * * * * * * * * * * * * * * //

dimensions      [0 1 -1 0 0 0 0];

internalField   nonuniform List<vector> 
100000
(
(-5.20975e-12 6.47071e-06 4.64879e-13)
(-5.23693e-12 1.20739e-05 7.73233e-14)
(-8.37477e-12 2.20113e-05 1.45716e-13)
(-1.44308e-11 3.26827e-05 1.54816e-13)
(-1.79514e-11 4.23579e-05 8.82594e-14)
(-1.70182e-11 4.48405e-05 7.45728e-14)
(-2.06858e-11 5.47375e-05 1.42088e-13)
(-2.6354e-11 6.555e-05 1.47751e-13)
(-3.13344e-11 7.63444e-05 1.49569e-13)
(-3.58935e-11 8.61057e-05 8.42236e-14)
(-3.39893e-11 8.85227e-05 7.82669e-14)
(-3.84088e-11 9.83933e-05 1.42982e-13)
(-4.36285e-11 0.00010921 1.48581e-13)
(-4.88524e-11 0.000120013 1.47748e-13)
(-5.33267e-11 0.000129799 8.34461e-14)
(-5.13587e-11 0.000132204 7.87772e-14)
(-5.5985e-11 0.000142061 1.44278e-13)
(-6.08538e-11 0.000152878 1.48074e-13)
(-6.6601e-11 0.000163685 1.47714e-13)
(-7.03645e-11 0.000173481 8.22938e-14)
(-6.93078e-11 0.000175882 7.99165e-14)
(-7.27961e-11 0.000185733 1.43994e-13)
(-7.90743e-11 0.000196557 1.49675e-13)
(-8.31946e-11 0.000207459 1.51285e-13)
(-8.94996e-11 0.000218275 1.47965e-13)
(-9.3015e-11 0.000228079 8.35539e-14)
(-9.18922e-11 0.000230478 8.01942e-14)
(-9.56707e-11 0.000240323 1.46401e-13)
(-1.0141e-10 0.000251139 1.494e-13)
(-1.06303e-10 0.00026195 1.48271e-13)
(-1.1098e-10 0.000271757 8.25562e-14)
(-1.08902e-10 0.000274155 8.08031e-14)
(-1.13477e-10 0.000283997 1.45918e-13)
(-1.18555e-10 0.000294813 1.49577e-13)
(-1.23992e-10 0.000305624 1.47645e-13)
(-1.28215e-10 0.000315434 8.25643e-14)
(-1.26518e-10 0.000317831 8.06448e-14)
(-1.30782e-10 0.000327671 1.46063e-13)
(-1.36116e-10 0.000338487 1.4929e-13)
(-1.41338e-10 0.000349298 1.47524e-13)
(-1.45735e-10 0.00035911 8.22817e-14)
(-1.43899e-10 0.000361506 8.07661e-14)
(-1.4828e-10 0.000371345 1.45972e-13)
(-1.53519e-10 0.00038216 1.49239e-13)
(-1.58815e-10 0.000392972 1.47287e-13)
(-1.63151e-10 0.000402786 8.21819e-14)
(-1.61365e-10 0.000405182 8.07585e-14)
(-1.65711e-10 0.000415019 1.45988e-13)
(-1.70973e-10 0.000425835 1.49121e-13)
(-1.76254e-10 0.000436646 1.47167e-13)
(-1.80594e-10 0.000446461 8.20395e-14)
(-1.78815e-10 0.000448857 8.08107e-14)
(-1.83147e-10 0.000458694 1.45945e-13)
(-1.88433e-10 0.000469509 1.49082e-13)
(-1.93677e-10 0.000480321 1.47011e-13)
(-1.98064e-10 0.000490137 8.19848e-14)
(-1.96228e-10 0.000492533 8.07859e-14)
(-2.00633e-10 0.000502368 1.45985e-13)
(-2.05828e-10 0.000513183 1.48962e-13)
(-2.11183e-10 0.000523995 1.46981e-13)
(-2.15433e-10 0.000533812 8.18219e-14)
(-2.13764e-10 0.000536208 8.09033e-14)
(-2.1797e-10 0.000546043 1.45855e-13)
(-2.23403e-10 0.000556858 1.49056e-13)
(-2.28471e-10 0.00056767 1.46724e-13)
(-2.33065e-10 0.000577487 8.19609e-14)
(-2.30985e-10 0.000579883 8.0672e-14)
(-2.35685e-10 0.000589717 1.46141e-13)
(-2.40526e-10 0.000600532 1.48661e-13)
(-2.46303e-10 0.000611344 1.47073e-13)
(-2.50046e-10 0.000621162 8.13995e-14)
(-2.48985e-10 0.000623558 8.12933e-14)
(-2.52467e-10 0.000633392 1.45445e-13)
(-2.58771e-10 0.000644214 1.50195e-13)
(-2.62877e-10 0.000655117 1.50704e-13)
(-2.69187e-10 0.000665937 1.46666e-13)
(-2.72682e-10 0.000675756 8.24267e-14)
(-2.71593e-10 0.000678152 8.07522e-14)
(-2.75352e-10 0.000687985 1.46696e-13)
(-2.81112e-10 0.0006988 1.49042e-13)
(-2.85978e-10 0.000709612 1.47314e-13)
(-2.90669e-10 0.000719431 8.17281e-14)
(-2.88587e-10 0.000721827 8.12736e-14)
(-2.93174e-10 0.000731659 1.46225e-13)
(-2.98244e-10 0.000742474 1.49351e-13)
(-3.03683e-10 0.000753287 1.46937e-13)
(-3.07896e-10 0.000763106 8.19268e-14)
(-3.06214e-10 0.000765502 8.10604e-14)
(-3.10467e-10 0.000775334 1.46367e-13)
(-3.15816e-10 0.000786149 1.49161e-13)
(-3.2102e-10 0.000796961 1.46987e-13)
(-3.2543e-10 0.000806781 8.17861e-14)
(-3.23583e-10 0.000809177 8.11319e-14)
(-3.27979e-10 0.000819009 1.46279e-13)
(-3.33204e-10 0.000829823 1.49165e-13)
(-3.38516e-10 0.000840636 1.46892e-13)
(-3.42828e-10 0.000850456 8.17712e-14)
(-3.41071e-10 0.000852852 8.11102e-14)
(-3.45384e-10 0.000862683 1.46263e-13)
(-3.50689e-10 0.000873498 1.49126e-13)
(-3.55919e-10 0.000884311 1.4683e-13)
(-3.60316e-10 0.000894131 8.17518e-14)
(-3.5847e-10 0.000896527 8.10789e-14)
(-3.62882e-10 0.000906358 1.46279e-13)
(-3.68075e-10 0.000917172 1.49042e-13)
(-3.73433e-10 0.000927985 1.46843e-13)
(-3.7768e-10 0.000937806 8.16414e-14)
(-3.7601e-10 0.000940202 8.11694e-14)
(-3.80216e-10 0.000950033 1.46145e-13)
(-3.85652e-10 0.000960847 1.49149e-13)
(-3.9072e-10 0.00097166 1.46631e-13)
(-3.95313e-10 0.000981481 8.18141e-14)
(-3.93231e-10 0.000983877 8.09211e-14)
(-3.9793e-10 0.000993707 1.46421e-13)
(-4.02776e-10 0.00100452 1.48766e-13)
(-4.0855e-10 0.00101533 1.47015e-13)
(-4.12297e-10 0.00102516 8.12775e-14)
(-4.11229e-10 0.00102755 8.15328e-14)
(-4.14714e-10 0.00103738 1.45708e-13)
(-4.2102e-10 0.0010482 1.50315e-13)
(-4.25126e-10 0.00105911 1.50629e-13)
(-4.31435e-10 0.00106993 1.4646e-13)
(-4.34928e-10 0.00107975 8.22316e-14)
(-4.33843e-10 0.00108214 8.08774e-14)
(-4.376e-10 0.00109198 1.46783e-13)
(-4.43362e-10 0.00110279 1.48998e-13)
(-4.48225e-10 0.0011136 1.4714e-13)
(-4.52917e-10 0.00112342 8.15659e-14)
(-4.50835e-10 0.00112582 8.13937e-14)
(-4.55422e-10 0.00113565 1.4632e-13)
(-4.60494e-10 0.00114646 1.49328e-13)
(-4.6593e-10 0.00115728 1.46795e-13)
(-4.70145e-10 0.0011671 8.17907e-14)
(-4.68461e-10 0.00116949 8.11751e-14)
(-4.72718e-10 0.00117932 1.46473e-13)
(-4.78063e-10 0.00119014 1.4915e-13)
(-4.83272e-10 0.00120095 1.46879e-13)
(-4.87674e-10 0.00121077 8.16628e-14)
(-4.85837e-10 0.00121317 8.12533e-14)
(-4.90221e-10 0.001223 1.46379e-13)
(-4.95462e-10 0.00123381 1.49182e-13)
(-5.00754e-10 0.00124463 1.4679e-13)
(-5.05089e-10 0.00125445 8.16844e-14)
(-5.03305e-10 0.00125684 8.12063e-14)
(-5.07649e-10 0.00126667 1.46395e-13)
(-5.12918e-10 0.00127749 1.49123e-13)
(-5.18193e-10 0.0012883 1.46787e-13)
(-5.22535e-10 0.00129812 8.16329e-14)
(-5.20754e-10 0.00130052 8.1229e-14)
(-5.25087e-10 0.00131035 1.46346e-13)
(-5.30376e-10 0.00132116 1.4913e-13)
(-5.35619e-10 0.00133198 1.46721e-13)
(-5.40005e-10 0.0013418 8.16521e-14)
(-5.38168e-10 0.00134419 8.11772e-14)
(-5.42572e-10 0.00135402 1.46381e-13)
(-5.47773e-10 0.00136484 1.49044e-13)
(-5.53124e-10 0.00137565 1.46764e-13)
(-5.57377e-10 0.00138547 8.15471e-14)
(-5.55701e-10 0.00138787 8.12732e-14)
(-5.59912e-10 0.0013977 1.46243e-13)
(-5.65346e-10 0.00140851 1.49167e-13)
(-5.70415e-10 0.00141933 1.46563e-13)
(-5.75006e-10 0.00142915 8.17365e-14)
(-5.72926e-10 0.00143154 8.10191e-14)
(-5.77623e-10 0.00144137 1.46526e-13)
(-5.82472e-10 0.00145219 1.48789e-13)
(-5.88243e-10 0.001463 1.46965e-13)
(-5.91992e-10 0.00147282 8.12067e-14)
(-5.90922e-10 0.00147522 8.16332e-14)
(-5.94408e-10 0.00148505 1.45809e-13)
(-6.00714e-10 0.00149587 1.50349e-13)
(-6.0482e-10 0.00150677 1.50569e-13)
(-6.11129e-10 0.00151759 1.46338e-13)
(-6.1462e-10 0.00152742 8.21228e-14)
(-6.13539e-10 0.00152981 8.09274e-14)
(-6.17294e-10 0.00153964 1.46802e-13)
(-6.23058e-10 0.00155046 1.48953e-13)
(-6.27918e-10 0.00156127 1.47029e-13)
(-6.32612e-10 0.00157109 8.14729e-14)
(-6.30529e-10 0.00157349 8.14411e-14)
(-6.35118e-10 0.00158332 1.46349e-13)
(-6.40187e-10 0.00159413 1.49291e-13)
(-6.45626e-10 0.00160494 1.46702e-13)
(-6.49837e-10 0.00161477 8.17042e-14)
(-6.48158e-10 0.00161716 8.12277e-14)
(-6.5241e-10 0.00162699 1.46503e-13)
(-6.57761e-10 0.0016378 1.49128e-13)
(-6.62962e-10 0.00164862 1.46792e-13)
(-6.67373e-10 0.00165844 8.15932e-14)
(-6.65526e-10 0.00166084 8.12974e-14)
(-6.69922e-10 0.00167067 1.46425e-13)
(-6.75148e-10 0.00168148 1.49156e-13)
(-6.80459e-10 0.00169229 1.46731e-13)
(-6.84771e-10 0.00170212 8.16041e-14)
(-6.83014e-10 0.00170451 8.12737e-14)
(-6.87327e-10 0.00171434 1.46417e-13)
(-6.92634e-10 0.00172515 1.49136e-13)
(-6.97862e-10 0.00173597 1.467e-13)
(-7.0226e-10 0.00174579 8.1607e-14)
(-7.00413e-10 0.00174819 8.12404e-14)
(-7.04825e-10 0.00175801 1.4644e-13)
(-7.1002e-10 0.00176883 1.49069e-13)
(-7.15376e-10 0.00177964 1.46739e-13)
(-7.19625e-10 0.00178947 8.15161e-14)
(-7.17952e-10 0.00179186 8.1329e-14)
(-7.22159e-10 0.00180169 1.4631e-13)
(-7.27597e-10 0.0018125 1.49191e-13)
(-7.32664e-10 0.00182332 1.46549e-13)
(-7.37257e-10 0.00183314 8.1707e-14)
(-7.35174e-10 0.00183554 8.10774e-14)
(-7.39872e-10 0.00184536 1.46592e-13)
(-7.44722e-10 0.00185618 1.48819e-13)
(-7.50493e-10 0.00186699 1.46956e-13)
(-7.54242e-10 0.00187682 8.1182e-14)
(-7.53171e-10 0.00187921 8.16915e-14)
(-7.56657e-10 0.00188904 1.45876e-13)
(-7.62964e-10 0.00189986 1.50382e-13)
(-7.6707e-10 0.00191076 1.50556e-13)
(-7.73378e-10 0.00192158 1.46292e-13)
(-7.7687e-10 0.00193141 8.2078e-14)
(-7.75788e-10 0.0019338 8.09608e-14)
(-7.79543e-10 0.00194363 1.46828e-13)
(-7.85308e-10 0.00195445 1.48946e-13)
(-7.90167e-10 0.00196526 1.46989e-13)
(-7.9486e-10 0.00197508 8.14328e-14)
(-7.92779e-10 0.00197748 8.14759e-14)
(-7.97367e-10 0.00198731 1.46378e-13)
(-8.02438e-10 0.00199812 1.4929e-13)
(-8.07874e-10 0.00200893 1.46667e-13)
(-8.12088e-10 0.00201876 8.16712e-14)
(-8.10406e-10 0.00202115 8.12597e-14)
(-8.14662e-10 0.00203098 1.46538e-13)
(-8.20008e-10 0.0020418 1.49127e-13)
(-8.25216e-10 0.00205261 1.46769e-13)
(-8.29618e-10 0.00206243 8.15566e-14)
(-8.27781e-10 0.00206483 8.13392e-14)
(-8.32165e-10 0.00207466 1.46452e-13)
(-8.37406e-10 0.00208547 1.49171e-13)
(-8.42699e-10 0.00209628 1.46698e-13)
(-8.47033e-10 0.00210611 8.15901e-14)
(-8.45249e-10 0.0021085 8.12934e-14)
(-8.49593e-10 0.00211833 1.46474e-13)
(-8.54863e-10 0.00212915 1.49123e-13)
(-8.60137e-10 0.00213996 1.4671e-13)
(-8.6448e-10 0.00214978 8.15493e-14)
(-8.62698e-10 0.00215218 8.13169e-14)
(-8.67031e-10 0.00216201 1.46431e-13)
(-8.72321e-10 0.00217282 1.4914e-13)
(-8.77564e-10 0.00218363 1.46657e-13)
(-8.81949e-10 0.00219346 8.15782e-14)
(-8.80112e-10 0.00219585 8.12658e-14)
(-8.84516e-10 0.00220568 1.46471e-13)
(-8.89718e-10 0.00221649 1.49063e-13)
(-8.95068e-10 0.00222731 1.46712e-13)
(-8.99322e-10 0.00223713 8.14819e-14)
(-8.97645e-10 0.00223953 8.13624e-14)
(-9.01856e-10 0.00224936 1.46338e-13)
(-9.0729e-10 0.00226017 1.49194e-13)
(-9.1236e-10 0.00227098 1.46523e-13)
(-9.16951e-10 0.00228081 8.16798e-14)
(-9.1487e-10 0.0022832 8.11081e-14)
(-9.19566e-10 0.00229303 1.46625e-13)
(-9.24418e-10 0.00230384 1.48823e-13)
(-9.30187e-10 0.00231466 1.46936e-13)
(-9.33938e-10 0.00232448 8.11554e-14)
(-9.32865e-10 0.00232688 8.17249e-14)
(-9.36353e-10 0.00233671 1.45908e-13)
(-9.42659e-10 0.00234753 1.50391e-13)
(-9.46765e-10 0.00235843 1.50531e-13)
(-9.53073e-10 0.00236925 1.46245e-13)
(-9.56564e-10 0.00237908 8.20372e-14)
(-9.55484e-10 0.00238147 8.09774e-14)
(-9.59238e-10 0.0023913 1.46832e-13)
(-9.65003e-10 0.00240211 1.48927e-13)
(-9.69861e-10 0.00241293 1.46945e-13)
(-9.74556e-10 0.00242275 8.13976e-14)
(-9.72473e-10 0.00242515 8.14912e-14)
(-9.77063e-10 0.00243497 1.46387e-13)
(-9.82132e-10 0.00244579 1.49272e-13)
(-9.8757e-10 0.0024566 1.4663e-13)
(-9.9178e-10 0.00246642 8.16357e-14)
(-9.90103e-10 0.00246882 8.12797e-14)
(-9.94354e-10 0.00247865 1.46545e-13)
(-9.99707e-10 0.00248946 1.49118e-13)
(-1.00491e-09 0.00250028 1.4673e-13)
(-1.00932e-09 0.0025101 8.15314e-14)
(-1.00747e-09 0.00251249 8.1351e-14)
(-1.01187e-09 0.00252232 1.46472e-13)
(-1.01709e-09 0.00253314 1.49152e-13)
(-1.0224e-09 0.00254395 1.46678e-13)
(-1.02672e-09 0.00255377 8.15487e-14)
(-1.02496e-09 0.00255617 8.13284e-14)
(-1.02927e-09 0.002566 1.46469e-13)
(-1.03458e-09 0.00257681 1.49139e-13)
(-1.03981e-09 0.00258762 1.46655e-13)
(-1.0442e-09 0.00259745 8.15573e-14)
(-1.04236e-09 0.00259984 8.12964e-14)
(-1.04677e-09 0.00260967 1.46495e-13)
(-1.05197e-09 0.00262049 1.49078e-13)
(-1.05732e-09 0.0026313 1.46703e-13)
(-1.06157e-09 0.00264112 8.14718e-14)
(-1.0599e-09 0.00264352 8.1386e-14)
(-1.0641e-09 0.00265335 1.46369e-13)
(-1.06954e-09 0.00266416 1.49206e-13)
(-1.07461e-09 0.00267497 1.4652e-13)
(-1.0792e-09 0.0026848 8.16679e-14)
(-1.07712e-09 0.00268719 8.11348e-14)
(-1.08182e-09 0.00269702 1.46655e-13)
(-1.08667e-09 0.00270784 1.48838e-13)
(-1.09244e-09 0.00271865 1.46934e-13)
(-1.09619e-09 0.00272847 8.11462e-14)
(-1.09511e-09 0.00273087 8.17514e-14)
(-1.0986e-09 0.0027407 1.4594e-13)
(-1.10491e-09 0.00275152 1.50408e-13)
(-1.10901e-09 0.00276242 1.50528e-13)
(-1.11532e-09 0.00277324 1.46227e-13)
(-1.11881e-09 0.00278307 8.20187e-14)
(-1.11773e-09 0.00278546 8.09931e-14)
(-1.12149e-09 0.00279529 1.46846e-13)
(-1.12725e-09 0.0028061 1.48926e-13)
(-1.13211e-09 0.00281692 1.4693e-13)
(-1.13681e-09 0.00282674 8.13801e-14)
(-1.13472e-09 0.00282914 8.15087e-14)
(-1.13931e-09 0.00283896 1.46401e-13)
(-1.14438e-09 0.00284978 1.49275e-13)
(-1.14982e-09 0.00286059 1.46615e-13)
(-1.15403e-09 0.00287042 8.16228e-14)
(-1.15235e-09 0.00287281 8.12942e-14)
(-1.15661e-09 0.00288264 1.46565e-13)
(-1.16195e-09 0.00289345 1.49117e-13)
(-1.16716e-09 0.00290427 1.46724e-13)
(-1.17156e-09 0.00291409 8.15126e-14)
(-1.16973e-09 0.00291649 8.1375e-14)
(-1.17411e-09 0.00292631 1.46483e-13)
(-1.17935e-09 0.00293713 1.49167e-13)
(-1.18464e-09 0.00294794 1.46658e-13)
(-1.18898e-09 0.00295777 8.15502e-14)
(-1.18719e-09 0.00296016 8.13304e-14)
(-1.19154e-09 0.00296999 1.46508e-13)
(-1.19681e-09 0.0029808 1.49123e-13)
(-1.20208e-09 0.00299162 1.46676e-13)
(-1.20642e-09 0.00300144 8.15132e-14)
(-1.20464e-09 0.00300384 8.1355e-14)
(-1.20898e-09 0.00301366 1.46468e-13)
(-1.21427e-09 0.00302448 1.49144e-13)
(-1.21951e-09 0.00303529 1.46629e-13)
(-1.22389e-09 0.00304512 8.15457e-14)
(-1.22206e-09 0.00304751 8.1305e-14)
(-1.22646e-09 0.00305734 1.46511e-13)
(-1.23166e-09 0.00306815 1.49072e-13)
(-1.23701e-09 0.00307897 1.46689e-13)
(-1.24127e-09 0.00308879 8.14527e-14)
(-1.23959e-09 0.00309119 8.14025e-14)
(-1.2438e-09 0.00310101 1.4638e-13)
(-1.24924e-09 0.00311183 1.49207e-13)
(-1.25431e-09 0.00312264 1.46504e-13)
(-1.2589e-09 0.00313246 8.1654e-14)
(-1.25681e-09 0.00313486 8.11487e-14)
(-1.26151e-09 0.00314469 1.4667e-13)
(-1.26636e-09 0.0031555 1.48838e-13)
(-1.27213e-09 0.00316632 1.46923e-13)
(-1.27588e-09 0.00317614 8.11316e-14)
(-1.27481e-09 0.00317853 8.17676e-14)
(-1.2783e-09 0.00318836 1.45954e-13)
(-1.2846e-09 0.00319918 1.50411e-13)
(-1.28871e-09 0.00321009 1.50514e-13)
(-1.29502e-09 0.00322091 1.46202e-13)
(-1.29851e-09 0.00323073 8.19967e-14)
(-1.29743e-09 0.00323313 8.10011e-14)
(-1.30118e-09 0.00324296 1.46846e-13)
(-1.30695e-09 0.00325377 1.48915e-13)
(-1.31181e-09 0.00326458 1.46905e-13)
(-1.3165e-09 0.00327441 8.13615e-14)
(-1.31442e-09 0.0032768 8.15152e-14)
(-1.31901e-09 0.00328663 1.46405e-13)
(-1.32408e-09 0.00329744 1.49263e-13)
(-1.32952e-09 0.00330826 1.46595e-13)
(-1.33373e-09 0.00331808 8.16024e-14)
(-1.33205e-09 0.00332048 8.13051e-14)
(-1.3363e-09 0.00333031 1.46566e-13)
(-1.34165e-09 0.00334112 1.49112e-13)
(-1.34685e-09 0.00335193 1.467e-13)
(-1.35126e-09 0.00336176 8.15011e-14)
(-1.34942e-09 0.00336415 8.13774e-14)
(-1.35381e-09 0.00337398 1.46495e-13)
(-1.35904e-09 0.00338479 1.49151e-13)
(-1.36435e-09 0.00339561 1.46652e-13)
(-1.36866e-09 0.00340543 8.15211e-14)
(-1.3669e-09 0.00340783 8.13559e-14)
(-1.37122e-09 0.00341765 1.46495e-13)
(-1.37652e-09 0.00342847 1.49141e-13)
(-1.38175e-09 0.00343928 1.46633e-13)
(-1.38615e-09 0.00344911 8.15322e-14)
(-1.3843e-09 0.0034515 8.13248e-14)
(-1.38871e-09 0.00346133 1.46523e-13)
(-1.39391e-09 0.00347214 1.49083e-13)
(-1.39927e-09 0.00348296 1.46684e-13)
(-1.40351e-09 0.00349278 8.14491e-14)
(-1.40184e-09 0.00349518 8.14152e-14)
(-1.40605e-09 0.003505 1.464e-13)
(-1.41149e-09 0.00351582 1.49214e-13)
(-1.41655e-09 0.00352663 1.46504e-13)
(-1.42115e-09 0.00353646 8.16477e-14)
(-1.41906e-09 0.00353885 8.11647e-14)
(-1.42376e-09 0.00354868 1.46688e-13)
(-1.42861e-09 0.00355949 1.48848e-13)
(-1.43438e-09 0.00357031 1.46923e-13)
(-1.43813e-09 0.00358013 8.11274e-14)
(-1.43706e-09 0.00358253 8.17829e-14)
(-1.44055e-09 0.00359235 1.45973e-13)
(-1.44685e-09 0.00360318 1.50421e-13)
(-1.45096e-09 0.00361408 1.50513e-13)
(-1.45727e-09 0.0036249 1.46193e-13)
(-1.46076e-09 0.00363472 8.19872e-14)
(-1.45968e-09 0.00363712 8.10104e-14)
(-1.46343e-09 0.00364695 1.46856e-13)
(-1.4692e-09 0.00365776 1.48915e-13)
(-1.47406e-09 0.00366857 1.46898e-13)
(-1.47875e-09 0.0036784 8.13518e-14)
(-1.47667e-09 0.00368079 8.15263e-14)
(-1.48126e-09 0.00369062 1.46414e-13)
(-1.48633e-09 0.00370144 1.49267e-13)
(-1.49176e-09 0.00371225 1.46587e-13)
(-1.49598e-09 0.00372207 8.15966e-14)
(-1.4943e-09 0.00372447 8.13129e-14)
(-1.49855e-09 0.0037343 1.4658e-13)
(-1.5039e-09 0.00374511 1.49112e-13)
(-1.50911e-09 0.00375592 1.46699e-13)
(-1.51351e-09 0.00376575 8.14885e-14)
(-1.51167e-09 0.00376814 8.13947e-14)
(-1.51606e-09 0.00377797 1.46499e-13)
(-1.5213e-09 0.00378879 1.49164e-13)
(-1.52659e-09 0.0037996 1.46637e-13)
(-1.53092e-09 0.00380942 8.15281e-14)
(-1.52914e-09 0.00381182 8.13509e-14)
(-1.53348e-09 0.00382165 1.46527e-13)
(-1.53875e-09 0.00383246 1.49123e-13)
(-1.54403e-09 0.00384327 1.46658e-13)
(-1.54837e-09 0.0038531 8.14931e-14)
(-1.54659e-09 0.00385549 8.13763e-14)
(-1.55092e-09 0.00386532 1.46489e-13)
(-1.55621e-09 0.00387613 1.49146e-13)
(-1.56145e-09 0.00388695 1.46613e-13)
(-1.56584e-09 0.00389677 8.15274e-14)
(-1.564e-09 0.00389917 8.13271e-14)
(-1.56841e-09 0.003909 1.46534e-13)
(-1.57361e-09 0.00391981 1.49077e-13)
(-1.57896e-09 0.00393062 1.46676e-13)
(-1.58321e-09 0.00394045 8.14362e-14)
(-1.58153e-09 0.00394284 8.14254e-14)
(-1.58575e-09 0.00395267 1.46404e-13)
(-1.59118e-09 0.00396348 1.49214e-13)
(-1.59625e-09 0.0039743 1.46494e-13)
(-1.60084e-09 0.00398412 8.16392e-14)
(-1.59876e-09 0.00398652 8.11721e-14)
(-1.60346e-09 0.00399635 1.46696e-13)
(-1.60831e-09 0.00400716 1.48847e-13)
(-1.61408e-09 0.00401797 1.46915e-13)
(-1.61783e-09 0.0040278 8.1118e-14)
(-1.61675e-09 0.00403019 8.17923e-14)
(-1.62024e-09 0.00404002 1.45981e-13)
(-1.62655e-09 0.00405084 1.50422e-13)
(-1.63066e-09 0.00406174 1.50504e-13)
(-1.63696e-09 0.00407257 1.46177e-13)
(-1.64045e-09 0.00408239 8.19732e-14)
(-1.63937e-09 0.00408479 8.10149e-14)
(-1.64313e-09 0.00409461 1.46855e-13)
(-1.64889e-09 0.00410543 1.48908e-13)
(-1.65375e-09 0.00411624 1.46882e-13)
(-1.65845e-09 0.00412607 8.13403e-14)
(-1.65636e-09 0.00412846 8.15294e-14)
(-1.66095e-09 0.00413829 1.46415e-13)
(-1.66602e-09 0.0041491 1.49258e-13)
(-1.67146e-09 0.00415992 1.46575e-13)
(-1.67567e-09 0.00416974 8.15828e-14)
(-1.67399e-09 0.00417214 8.13201e-14)
(-1.67824e-09 0.00418196 1.46578e-13)
(-1.6836e-09 0.00419278 1.49109e-13)
(-1.6888e-09 0.00420359 1.46682e-13)
(-1.69321e-09 0.00421342 8.14829e-14)
(-1.69136e-09 0.00421581 8.13932e-14)
(-1.69576e-09 0.00422564 1.46509e-13)
(-1.70098e-09 0.00423645 1.4915e-13)
(-1.70629e-09 0.00424727 1.46636e-13)
(-1.71061e-09 0.00425709 8.15045e-14)
(-1.70885e-09 0.00425949 8.13723e-14)
(-1.71316e-09 0.00426931 1.46511e-13)
(-1.71847e-09 0.00428013 1.49142e-13)
(-1.7237e-09 0.00429094 1.46619e-13)
(-1.72809e-09 0.00430076 8.1517e-14)
(-1.72625e-09 0.00430316 8.1342e-14)
(-1.73066e-09 0.00431299 1.46541e-13)
(-1.73586e-09 0.0043238 1.49086e-13)
(-1.74121e-09 0.00433461 1.46673e-13)
(-1.74546e-09 0.00434444 8.14353e-14)
(-1.74379e-09 0.00434683 8.1433e-14)
(-1.74799e-09 0.00435666 1.46418e-13)
(-1.75343e-09 0.00436748 1.49218e-13)
(-1.7585e-09 0.00437829 1.46495e-13)
(-1.76309e-09 0.00438811 8.16352e-14)
(-1.76101e-09 0.00439051 8.1183e-14)
(-1.76571e-09 0.00440034 1.46708e-13)
(-1.77056e-09 0.00441115 1.48854e-13)
(-1.77633e-09 0.00442196 1.46916e-13)
(-1.78008e-09 0.00443179 8.11159e-14)
(-1.779e-09 0.00443418 8.18023e-14)
(-1.78249e-09 0.00444401 1.45994e-13)
(-1.7888e-09 0.00445483 1.5043e-13)
(-1.79291e-09 0.00446574 1.50504e-13)
(-1.79921e-09 0.00447656 1.46171e-13)
(-1.8027e-09 0.00448638 8.19677e-14)
(-1.80162e-09 0.00448878 8.10211e-14)
(-1.80538e-09 0.0044986 1.46862e-13)
(-1.81114e-09 0.00450942 1.48908e-13)
(-1.816e-09 0.00452023 1.46878e-13)
(-1.8207e-09 0.00453006 8.13342e-14)
(-1.81861e-09 0.00453245 8.15373e-14)
(-1.8232e-09 0.00454228 1.46421e-13)
(-1.82827e-09 0.00455309 1.49262e-13)
(-1.83371e-09 0.00456391 1.46569e-13)
(-1.83792e-09 0.00457373 8.15802e-14)
(-1.83624e-09 0.00457613 8.13247e-14)
(-1.8405e-09 0.00458595 1.46589e-13)
(-1.84584e-09 0.00459677 1.49108e-13)
(-1.85105e-09 0.00460758 1.46683e-13)
(-1.85545e-09 0.00461741 8.14733e-14)
(-1.85362e-09 0.0046198 8.14071e-14)
(-1.858e-09 0.00462963 1.4651e-13)
(-1.86324e-09 0.00464044 1.49162e-13)
(-1.86853e-09 0.00465126 1.46623e-13)
(-1.87287e-09 0.00466108 8.15141e-14)
(-1.87108e-09 0.00466348 8.13639e-14)
(-1.87543e-09 0.0046733 1.46539e-13)
(-1.8807e-09 0.00468412 1.49123e-13)
(-1.88597e-09 0.00469493 1.46646e-13)
(-1.89031e-09 0.00470476 8.14802e-14)
(-1.88853e-09 0.00470715 8.139e-14)
(-1.89287e-09 0.00471698 1.46502e-13)
(-1.89816e-09 0.00472779 1.49148e-13)
(-1.9034e-09 0.00473861 1.46603e-13)
(-1.90778e-09 0.00474843 8.15157e-14)
(-1.90595e-09 0.00475083 8.13412e-14)
(-1.91035e-09 0.00476065 1.46548e-13)
(-1.91555e-09 0.00477147 1.4908e-13)
(-1.9209e-09 0.00478228 1.46668e-13)
(-1.92516e-09 0.00479211 8.14255e-14)
(-1.92348e-09 0.0047945 8.14401e-14)
(-1.92769e-09 0.00480433 1.4642e-13)
(-1.93313e-09 0.00481514 1.49218e-13)
(-1.9382e-09 0.00482596 1.46487e-13)
(-1.94279e-09 0.00483578 8.16297e-14)
(-1.9407e-09 0.00483818 8.11872e-14)
(-1.9454e-09 0.004848 1.46713e-13)
(-1.95025e-09 0.00485882 1.48852e-13)
(-1.95602e-09 0.00486963 1.4691e-13)
(-1.95977e-09 0.00487946 8.1109e-14)
(-1.9587e-09 0.00488185 8.18084e-14)
(-1.96219e-09 0.00489168 1.45998e-13)
(-1.96849e-09 0.0049025 1.5043e-13)
(-1.9726e-09 0.0049134 1.50497e-13)
(-1.97891e-09 0.00492422 1.4616e-13)
(-1.9824e-09 0.00493405 8.19578e-14)
(-1.98132e-09 0.00493644 8.10239e-14)
(-1.98507e-09 0.00494627 1.4686e-13)
(-1.99084e-09 0.00495708 1.48903e-13)
(-1.9957e-09 0.0049679 1.46866e-13)
(-2.00039e-09 0.00497772 8.13264e-14)
(-1.99831e-09 0.00498012 8.15387e-14)
(-2.0029e-09 0.00498995 1.46422e-13)
(-2.00797e-09 0.00500076 1.49255e-13)
(-2.01341e-09 0.00501157 1.46561e-13)
(-2.01761e-09 0.0050214 8.15697e-14)
(-2.01594e-09 0.00502379 8.13301e-14)
(-2.02019e-09 0.00503362 1.46586e-13)
(-2.02554e-09 0.00504443 1.49107e-13)
(-2.03074e-09 0.00505525 1.4667e-13)
(-2.03515e-09 0.00506507 8.1471e-14)
(-2.03331e-09 0.00506747 8.14037e-14)
(-2.0377e-09 0.0050773 1.46519e-13)
(-2.04293e-09 0.00508811 1.49149e-13)
(-2.04824e-09 0.00509892 1.46626e-13)
(-2.05255e-09 0.00510875 8.14935e-14)
(-2.05079e-09 0.00511114 8.13833e-14)
(-2.05511e-09 0.00512097 1.46521e-13)
(-2.06041e-09 0.00513178 1.49143e-13)
(-2.06564e-09 0.0051426 1.4661e-13)
(-2.07004e-09 0.00515242 8.15069e-14)
(-2.06819e-09 0.00515482 8.13534e-14)
(-2.0726e-09 0.00516464 1.46552e-13)
(-2.0778e-09 0.00517546 1.49088e-13)
(-2.08316e-09 0.00518627 1.46665e-13)
(-2.08741e-09 0.0051961 8.1426e-14)
(-2.08573e-09 0.00519849 8.1445e-14)
(-2.08994e-09 0.00520832 1.46431e-13)
(-2.09538e-09 0.00521913 1.49222e-13)
(-2.10045e-09 0.00522995 1.46489e-13)
(-2.10504e-09 0.00523977 8.16269e-14)
(-2.10295e-09 0.00524217 8.11953e-14)
(-2.10765e-09 0.00525199 1.46722e-13)
(-2.1125e-09 0.00526281 1.48858e-13)
(-2.11827e-09 0.00527362 1.46911e-13)
(-2.12202e-09 0.00528345 8.1108e-14)
(-2.12095e-09 0.00528584 8.18155e-14)
(-2.12444e-09 0.00529567 1.46008e-13)
(-2.13074e-09 0.00530649 1.50435e-13)
(-2.13485e-09 0.00531739 1.50498e-13)
(-2.14116e-09 0.00532821 1.46157e-13)
(-2.14465e-09 0.00533804 8.19544e-14)
(-2.14357e-09 0.00534044 8.10284e-14)
(-2.14732e-09 0.00535026 1.46866e-13)
(-2.15309e-09 0.00536108 1.48904e-13)
(-2.15795e-09 0.00537189 1.46865e-13)
(-2.16264e-09 0.00538172 8.13222e-14)
(-2.16056e-09 0.00538411 8.15448e-14)
(-2.16515e-09 0.00539394 1.46427e-13)
(-2.17022e-09 0.00540475 1.49258e-13)
(-2.17565e-09 0.00541556 1.46557e-13)
(-2.17987e-09 0.00542539 8.15689e-14)
(-2.17819e-09 0.00542779 8.13328e-14)
(-2.18244e-09 0.00543761 1.46595e-13)
(-2.18779e-09 0.00544843 1.49106e-13)
(-2.193e-09 0.00545924 1.46673e-13)
(-2.1974e-09 0.00546906 8.14629e-14)
(-2.19556e-09 0.00547146 8.14156e-14)
(-2.19995e-09 0.00548129 1.46517e-13)
(-2.20519e-09 0.0054921 1.49161e-13)
(-2.21048e-09 0.00550291 1.46614e-13)
(-2.21481e-09 0.00551274 8.15045e-14)
(-2.21303e-09 0.00551513 8.13729e-14)
(-2.21737e-09 0.00552496 1.46547e-13)
(-2.22264e-09 0.00553578 1.49123e-13)
(-2.22792e-09 0.00554659 1.46638e-13)
(-2.23226e-09 0.00555641 8.14714e-14)
(-2.23048e-09 0.00555881 8.13994e-14)
(-2.23481e-09 0.00556864 1.46511e-13)
(-2.2401e-09 0.00557945 1.49149e-13)
(-2.24534e-09 0.00559026 1.46596e-13)
(-2.24973e-09 0.00560009 8.15075e-14)
(-2.24789e-09 0.00560248 8.13511e-14)
(-2.2523e-09 0.00561231 1.46558e-13)
(-2.2575e-09 0.00562312 1.49082e-13)
(-2.26285e-09 0.00563394 1.46662e-13)
(-2.2671e-09 0.00564376 8.14181e-14)
(-2.26542e-09 0.00564616 8.14504e-14)
(-2.26964e-09 0.00565599 1.46431e-13)
(-2.27507e-09 0.0056668 1.49221e-13)
(-2.28014e-09 0.00567761 1.46482e-13)
(-2.28473e-09 0.00568744 8.16229e-14)
(-2.28265e-09 0.00568983 8.11978e-14)
(-2.28735e-09 0.00569966 1.46725e-13)
(-2.2922e-09 0.00571047 1.48857e-13)
(-2.29797e-09 0.00572129 1.46907e-13)
(-2.30172e-09 0.00573111 8.11028e-14)
(-2.30064e-09 0.00573351 8.18196e-14)
(-2.30413e-09 0.00574334 1.46011e-13)
(-2.31044e-09 0.00575416 1.50435e-13)
(-2.31455e-09 0.00576506 1.50492e-13)
(-2.32085e-09 0.00577588 1.46149e-13)
(-2.32434e-09 0.00578571 8.19469e-14)
(-2.32327e-09 0.0057881 8.10303e-14)
(-2.32702e-09 0.00579793 1.46864e-13)
(-2.33278e-09 0.00580874 1.489e-13)
(-2.33764e-09 0.00581956 1.46856e-13)
(-2.34234e-09 0.00582938 8.13165e-14)
(-2.34025e-09 0.00583178 8.15453e-14)
(-2.34484e-09 0.0058416 1.46427e-13)
(-2.34991e-09 0.00585242 1.49252e-13)
(-2.35535e-09 0.00586323 1.46551e-13)
(-2.35956e-09 0.00587306 8.15606e-14)
(-2.35788e-09 0.00587545 8.13371e-14)
(-2.36213e-09 0.00588528 1.46592e-13)
(-2.36749e-09 0.00589609 1.49106e-13)
(-2.37269e-09 0.00590691 1.46661e-13)
(-2.3771e-09 0.00591673 8.14624e-14)
(-2.37525e-09 0.00591913 8.14112e-14)
(-2.37965e-09 0.00592895 1.46525e-13)
(-2.38487e-09 0.00593977 1.49149e-13)
(-2.39018e-09 0.00595058 1.46618e-13)
(-2.3945e-09 0.00596041 8.14856e-14)
(-2.39274e-09 0.0059628 8.13911e-14)
(-2.39705e-09 0.00597263 1.46528e-13)
(-2.40236e-09 0.00598344 1.49143e-13)
(-2.40759e-09 0.00599426 1.46604e-13)
(-2.41198e-09 0.00600408 8.14996e-14)
(-2.41014e-09 0.00600648 8.13617e-14)
(-2.41455e-09 0.0060163 1.4656e-13)
(-2.41975e-09 0.00602712 1.49089e-13)
(-2.4251e-09 0.00603793 1.4666e-13)
(-2.42935e-09 0.00604776 8.14194e-14)
(-2.42768e-09 0.00605015 8.14536e-14)
(-2.43188e-09 0.00605998 1.4644e-13)
(-2.43732e-09 0.00607079 1.49224e-13)
(-2.44239e-09 0.0060816 1.46484e-13)
(-2.44698e-09 0.00609143 8.16209e-14)
(-2.4449e-09 0.00609383 8.12042e-14)
(-2.4496e-09 0.00610365 1.46732e-13)
(-2.45445e-09 0.00611447 1.48861e-13)
(-2.46022e-09 0.00612528 1.46908e-13)
(-2.46397e-09 0.0061351 8.11024e-14)
(-2.46289e-09 0.0061375 8.18249e-14)
(-2.46638e-09 0.00614733 1.46018e-13)
(-2.47269e-09 0.00615815 1.50439e-13)
(-2.4768e-09 0.00616905 1.50494e-13)
(-2.4831e-09 0.00617987 1.46146e-13)
(-2.48659e-09 0.0061897 8.19448e-14)
(-2.48551e-09 0.00619209 8.10337e-14)
(-2.48927e-09 0.00620192 1.46869e-13)
(-2.49503e-09 0.00621273 1.489e-13)
(-2.49989e-09 0.00622355 1.46855e-13)
(-2.50459e-09 0.00623337 8.13134e-14)
(-2.5025e-09 0.00623577 8.15503e-14)
(-2.50709e-09 0.00624559 1.46431e-13)
(-2.51216e-09 0.00625641 1.49256e-13)
(-2.5176e-09 0.00626722 1.46549e-13)
(-2.52181e-09 0.00627705 8.15607e-14)
(-2.52013e-09 0.00627944 8.13386e-14)
(-2.52439e-09 0.00628927 1.466e-13)
(-2.52973e-09 0.00630008 1.49104e-13)
(-2.53494e-09 0.0063109 1.46665e-13)
(-2.53934e-09 0.00632072 8.14552e-14)
(-2.53751e-09 0.00632312 8.14219e-14)
(-2.54189e-09 0.00633294 1.46523e-13)
(-2.54713e-09 0.00634376 1.4916e-13)
(-2.55242e-09 0.00635457 1.46607e-13)
(-2.55676e-09 0.0063644 8.14974e-14)
(-2.55497e-09 0.00636679 8.13795e-14)
(-2.55932e-09 0.00637662 1.46553e-13)
(-2.56459e-09 0.00638743 1.49123e-13)
(-2.56986e-09 0.00639825 1.46632e-13)
(-2.57421e-09 0.00640807 8.14648e-14)
(-2.57242e-09 0.00641047 8.14064e-14)
(-2.57676e-09 0.00642029 1.46518e-13)
(-2.58205e-09 0.00643111 1.4915e-13)
(-2.58729e-09 0.00644192 1.46591e-13)
(-2.59167e-09 0.00645175 8.15015e-14)
(-2.58984e-09 0.00645414 8.13584e-14)
(-2.59424e-09 0.00646397 1.46566e-13)
(-2.59944e-09 0.00647478 1.49083e-13)
(-2.60479e-09 0.0064856 1.46658e-13)
(-2.60905e-09 0.00649542 8.14126e-14)
(-2.60737e-09 0.00649782 8.1458e-14)
(-2.61158e-09 0.00650764 1.46439e-13)
(-2.61702e-09 0.00651846 1.49224e-13)
(-2.62209e-09 0.00652927 1.46479e-13)
(-2.62668e-09 0.0065391 8.1618e-14)
(-2.62459e-09 0.00654149 8.12057e-14)
(-2.62929e-09 0.00655132 1.46734e-13)
(-2.63414e-09 0.00656213 1.48859e-13)
(-2.63991e-09 0.00657295 1.46904e-13)
(-2.64366e-09 0.00658277 8.10981e-14)
(-2.64259e-09 0.00658517 8.18281e-14)
(-2.64608e-09 0.00659499 1.4602e-13)
(-2.65238e-09 0.00660581 1.50439e-13)
(-2.65649e-09 0.00661672 1.50489e-13)
(-2.6628e-09 0.00662754 1.4614e-13)
(-2.66629e-09 0.00663736 8.19388e-14)
(-2.66521e-09 0.00663976 8.10351e-14)
(-2.66896e-09 0.00664959 1.46867e-13)
(-2.67473e-09 0.0066604 1.48897e-13)
(-2.67959e-09 0.00667121 1.46847e-13)
(-2.68428e-09 0.00668104 8.13092e-14)
(-2.6822e-09 0.00668343 8.15502e-14)
(-2.68679e-09 0.00669326 1.46431e-13)
(-2.69186e-09 0.00670407 1.4925e-13)
(-2.6973e-09 0.00671489 1.46544e-13)
(-2.70151e-09 0.00672471 8.15536e-14)
(-2.69983e-09 0.00672711 8.13424e-14)
(-2.70408e-09 0.00673694 1.46596e-13)
(-2.70943e-09 0.00674775 1.49105e-13)