/*--------------------------------*- C++ -*----------------------------------*\
| =========                 |                                                 |
| \\      /  F ield         | OpenFOAM: The Open Source CFD Toolbox           |
|  \\    /   O peration     | Version:  2206                                  |
|   \\  /    A nd           | Website:  www.openfoam.com                      |
|    \\/     M anipulation  |                                                 |
\*---------------------------------------------------------------------------*/
FoamFile
{
    version     2.0;
    format      ascii;
    arch        "LSB;label=32;scalar=64";
    class       volScalarField;
    location    "4500";
    object      p;
}
// * * * * * * * * * * * * * * * * * * * * * * * * * * * * * * * * * * * * * //

dimensions      [0 2 -2 0 0 0 0];

internalField   nonuniform List<scalar> 
100
(
-1.2998584e-09
0.0390578898
0.0574558971
0.0750482843
0.088861789
0.10036277
0.109965259
0.118074932
0.124985572
0.130923025
0.136062318
0.140540867
0.144467752
0.147930449
0.150999762
0.153733499
0.156179224
0.158376366
0.160357826
0.16215124
0.163779949
0.165263783
0.166619672
0.16786214
0.169003709
0.170055213
0.171026071
0.171924499
0.172757693
0.173531973
0.174252913
0.174925438
0.17555392
0.176142246
0.17669388
0.177211923
0.177699151
0.178158061
0.178590899
0.178999693
0.179386276
0.17975231
0.180099303
0.180428627
0.180741532
0.181039158
0.181322549
0.181592659
0.181850364
0.182096469
0.182331713
0.182556778
0.182772292
0.182978837
0.183176948
0.183367122
0.183549821
0.183725471
0.18389447
0.184057188
0.184213967
0.184365129
0.184510973
0.184651778
0.184787805
0.184919298
0.185046485
0.185169583
0.18528879
0.185404297
0.18551628
0.185624907
0.185730334
0.18583271
0.185932173
0.186028855
0.186122881
0.186214366
0.186303423
0.186390156
0.186474663
0.18655704
0.186637374
0.186715751
0.186792249
0.186866946
0.186939913
0.187011219
0.187080928
0.187149104
0.187215805
0.187281089
0.18734501
0.187407601
0.187468864
0.187528936
0.18758851
0.187648297
0.187703375
0.187735279
)
;

boundaryField
{
    left
    {
        type            wedge;
    }
    right
    {
        type            wedge;
    }
    outerWall
    {
        type            zeroGradient;
    }
    innerWall
    {
        type            zeroGradient;
    }
    frontAndBack
    {
        type            empty;
    }
}


// ************************************************************************* //
