/*--------------------------------*- C++ -*----------------------------------*\
| =========                 |                                                 |
| \\      /  F ield         | OpenFOAM: The Open Source CFD Toolbox           |
|  \\    /   O peration     | Version:  2206                                  |
|   \\  /    A nd           | Website:  www.openfoam.com                      |
|    \\/     M anipulation  |                                                 |
\*---------------------------------------------------------------------------*/
FoamFile
{
    version     2.0;
    format      ascii;
    arch        "LSB;label=32;scalar=64";
    class       surfaceScalarField;
    location    "4500";
    object      phi;
}
// * * * * * * * * * * * * * * * * * * * * * * * * * * * * * * * * * * * * * //

dimensions      [0 3 -1 0 0 0 0];

oriented        oriented;

internalField   nonuniform List<scalar> 
99
(
3.18891586e-10
6.1303446e-10
8.85660613e-10
1.13977095e-09
1.37771934e-09
1.6014545e-09
1.81258242e-09
2.01246356e-09
2.20223922e-09
2.38289962e-09
2.55528304e-09
2.72013433e-09
2.87808546e-09
3.02971241e-09
3.17550123e-09
3.31590886e-09
3.45131506e-09
3.58209007e-09
3.708534e-09
3.8309537e-09
3.94958781e-09
4.0646956e-09
4.17646726e-09
4.28512646e-09
4.39082453e-09
4.49375781e-09
4.59404542e-09
4.69186356e-09
4.78730447e-09
4.88052852e-09
4.97160506e-09
5.06068312e-09
5.1478121e-09
5.2331323e-09
5.3166756e-09
5.39857635e-09
5.47885091e-09
5.55762921e-09
5.6349135e-09
5.71083124e-09
5.78537198e-09
5.85866151e-09
5.93067762e-09
6.00154587e-09
6.07123323e-09
6.13986539e-09
6.20739926e-09
6.27396173e-09
6.3395002e-09
6.40414308e-09
6.4678288e-09
6.53068789e-09
6.59265037e-09
6.65384899e-09
6.71420571e-09
6.77385617e-09
6.83271451e-09
6.89091945e-09
6.94837787e-09
7.00523127e-09
7.06137969e-09
7.11696761e-09
7.17188957e-09
7.22629141e-09
7.28006271e-09
7.33335149e-09
7.38604469e-09
7.43828811e-09
7.48996769e-09
7.54122776e-09
7.59195711e-09
7.64229205e-09
7.69212638e-09
7.74158988e-09
7.79058467e-09
7.83922776e-09
7.88743043e-09
7.93530027e-09
7.9827581e-09
8.02989944e-09
8.07665369e-09
8.12310837e-09
8.16919945e-09
8.21500683e-09
8.26047045e-09
8.30566701e-09
8.35054008e-09
8.39516006e-09
8.43947536e-09
8.4835502e-09
8.52734337e-09
8.57090352e-09
8.61420415e-09
8.65727885e-09
8.70011551e-09
8.74273386e-09
8.78513257e-09
8.82732105e-09
8.86930727e-09
)
;

boundaryField
{
    left
    {
        type            wedge;
        value           nonuniform List<scalar> 
100
(
1.34110821e-05
1.23703521e-05
1.1465534e-05
1.06867394e-05
1.00071387e-05
9.4092711e-06
8.87919166e-06
8.40605324e-06
7.98121194e-06
7.59768706e-06
7.249781e-06
6.9327972e-06
6.64282979e-06
6.37660473e-06
6.13135646e-06
5.90473256e-06
5.69472052e-06
5.49958751e-06
5.31783344e-06
5.14815407e-06
4.98940922e-06
4.84059769e-06
4.70083763e-06
4.56934841e-06
4.44543649e-06
4.32848444e-06
4.21793999e-06
4.11330761e-06
4.01414222e-06
3.92004217e-06
3.83064404e-06
3.74561894e-06
3.66466782e-06
3.58751812e-06
3.51392161e-06
3.44365105e-06
3.37649803e-06
3.31227169e-06
3.25079624e-06
3.19190987e-06
3.13546302e-06
3.08131789e-06
3.02934672e-06
2.9794309e-06
2.93146073e-06
2.88533403e-06
2.84095552e-06
2.79823681e-06
2.7570952e-06
2.71745329e-06
2.67923903e-06
2.6423848e-06
2.60682705e-06
2.5725065e-06
2.53936729e-06
2.50735677e-06
2.4764257e-06
2.44652756e-06
2.41761833e-06
2.3896568e-06
2.36260389e-06
2.33642252e-06
2.31107794e-06
2.28653703e-06
2.26276853e-06
2.23974262e-06
2.21743129e-06
2.19580781e-06
2.17484665e-06
2.15452384e-06
2.1348164e-06
2.11570237e-06
2.09716106e-06
2.07917268e-06
2.06171816e-06
2.04477962e-06
2.02833985e-06
2.01238227e-06
1.99689131e-06
1.98185195e-06
1.96724969e-06
1.95307091e-06
1.93930245e-06
1.92593156e-06
1.91294628e-06
1.90033502e-06
1.88808653e-06
1.87619027e-06
1.86463594e-06
1.85341375e-06
1.8425141e-06
1.83192803e-06
1.82164677e-06
1.8116618e-06
1.8019651e-06
1.79254883e-06
1.78340522e-06
1.77452697e-06
1.76590684e-06
1.75753695e-06
)
;
    }
    right
    {
        type            wedge;
        value           nonuniform List<scalar> 
100
(
-1.3411401e-05
-1.23706463e-05
-1.14658066e-05
-1.06869935e-05
-1.00073766e-05
-9.40949483e-06
-8.87940279e-06
-8.40625312e-06
-7.98140172e-06
-7.59786772e-06
-7.24995338e-06
-6.93296205e-06
-6.64298775e-06
-6.37675636e-06
-6.13150226e-06
-5.90487297e-06
-5.69485593e-06
-5.49971828e-06
-5.31795988e-06
-5.14827648e-06
-4.98952786e-06
-4.84071279e-06
-4.70094941e-06
-4.56945706e-06
-4.4455422e-06
-4.32858737e-06
-4.21804028e-06
-4.11340542e-06
-4.01423767e-06
-3.92013538e-06
-3.83073512e-06
-3.745708e-06
-3.66475496e-06
-3.58760343e-06
-3.51400516e-06
-3.44373293e-06
-3.37657832e-06
-3.31235045e-06
-3.25087354e-06
-3.19198577e-06
-3.13553758e-06
-3.08139116e-06
-3.02941875e-06
-2.97950175e-06
-2.93153043e-06
-2.88540263e-06
-2.84102308e-06
-2.79830335e-06
-2.75716076e-06
-2.7175179e-06
-2.67930274e-06
-2.64244763e-06
-2.60688904e-06
-2.57256767e-06
-2.53942767e-06
-2.50741639e-06
-2.47648458e-06
-2.44658573e-06
-2.41767581e-06
-2.38971362e-06
-2.36266007e-06
-2.33647808e-06
-2.31113289e-06
-2.2865914e-06
-2.26282234e-06
-2.23979588e-06
-2.21748401e-06
-2.19586002e-06
-2.17489837e-06
-2.15457507e-06
-2.13486716e-06
-2.11575267e-06
-2.09721093e-06
-2.07922211e-06
-2.06176718e-06
-2.04482824e-06
-2.02838808e-06
-2.01243013e-06
-1.9969388e-06
-1.98189908e-06
-1.96729647e-06
-1.95311735e-06
-1.93934856e-06
-1.92597735e-06
-1.91299176e-06
-1.9003802e-06
-1.88813143e-06
-1.87623488e-06
-1.86468028e-06
-1.85345782e-06
-1.84255791e-06
-1.83197159e-06
-1.82169009e-06
-1.81170487e-06
-1.80200795e-06
-1.79259145e-06
-1.78344763e-06
-1.77456916e-06
-1.76594883e-06
-1.75757874e-06
)
;
    }
    outerWall
    {
        type            calculated;
        value           uniform 8.9110979e-09;
    }
    innerWall
    {
        type            calculated;
        value           uniform 0;
    }
    frontAndBack
    {
        type            empty;
        value           nonuniform List<scalar> 0();
    }
}


// ************************************************************************* //
