/*--------------------------------*- C++ -*----------------------------------*\
| =========                 |                                                 |
| \\      /  F ield         | OpenFOAM: The Open Source CFD Toolbox           |
|  \\    /   O peration     | Version:  2206                                  |
|   \\  /    A nd           | Website:  www.openfoam.com                      |
|    \\/     M anipulation  |                                                 |
\*---------------------------------------------------------------------------*/
FoamFile
{
    version     2.0;
    format      ascii;
    arch        "LSB;label=32;scalar=64";
    class       volVectorField;
    location    "4500";
    object      U;
}
// * * * * * * * * * * * * * * * * * * * * * * * * * * * * * * * * * * * * * //

dimensions      [0 1 -1 0 0 0 0];

internalField   nonuniform List<vector> 
100
(
(0.0121933526 0.596062268 0)
(-0.00387784369 0.5498065 0)
(0.00092695338 0.509591405 0)
(-0.000133808967 0.474977489 0)
(9.84684731e-05 0.444772294 0)
(8.2164108e-05 0.41819977 0)
(0.000100313483 0.394640124 0)
(0.000111026805 0.373611249 0)
(0.000120059861 0.354728965 0)
(0.000127319277 0.33768301 7.34809423e-20)
(0.00013319932 0.32222015 -7.75667298e-20)
(0.000137950716 0.308131645 0)
(0.000141778667 0.295243902 0)
(0.000144845736 0.283411395 8.70954059e-20)
(0.000147282135 0.272511207 0)
(0.000149193182 0.2624388 0)
(0.000150664658 0.253104709 0)
(0.000151766941 0.24443192 0)
(0.000152558096 0.236353774 0)
(0.000153086354 0.22881229 0)
(0.00015339193 0.22175679 0)
(0.000153508567 0.215142792 0)
(0.000153464648 0.208931086 0)
(0.000153284204 0.203086977 0)
(0.0001529876 0.197579654 0)
(0.000152592202 0.192381662 0)
(0.000152112807 0.187468454 0)
(0.00015156213 0.18281802 0)
(0.000150951056 0.178410564 0)
(0.000150288983 0.174228236 0)
(0.000149583985 0.170254895 0)
(0.000148843076 0.166475912 0)
(0.000148072298 0.162877995 0)
(0.000147276916 0.159449042 0)
(0.00014646147 0.156178008 0)
(0.000145629941 0.153054795 0)
(0.000144785762 0.150070148 0)
(0.000143931948 0.147215577 0)
(0.000143071097 0.144483269 0)
(0.000142205501 0.141866032 0)
(0.000141337134 0.139357227 0)
(0.000140467736 0.136950719 0)
(0.000139598799 0.134640831 0)
(0.000138731646 0.132422301 0)
(0.000137867405 0.130290242 0)
(0.000137007075 0.128240115 0)
(0.000136151499 0.126267693 0)
(0.00013530143 0.124369038 0)
(0.000134457495 0.122540476 0)
(0.000133620252 0.120778574 0)
(0.000132790158 0.119080122 0)
(0.000131967622 0.117442115 0)
(0.00013115297 0.115861736 0)
(0.000130346494 0.114336342 0)
(0.000129548414 0.11286345 0)
(0.000128758932 0.111440729 0)
(0.000127978191 0.110065982 0)
(0.000127206321 0.108737142 0)
(0.000126443403 0.107452259 0)
(0.000125689508 0.106209495 0)
(0.000124944669 0.105007112 0)
(0.000124208914 0.103843471 0)
(0.000123482245 0.102717018 0)
(0.000122764649 0.101626285 0)
(0.000122056092 0.10056988 0)
(0.000121356543 0.099546484 0)
(0.000120665963 0.0985548457 7.37729483e-20)
(0.000119984282 0.0975937772 0)
(0.000119311435 0.0966621503 0)
(0.000118647345 0.0957588924 0)
(0.000117991955 0.0948829835 0)
(0.000117345158 0.0940334527 7.05539105e-20)
(0.000116706877 0.0932093753 0)
(0.000116077004 0.0924098703 0)
(0.00011545548 0.0916340976 0)
(0.000114842176 0.0908812559 -6.81239202e-20)
(0.000114237008 0.09015058 0)
(0.000113639855 0.0894413395 0)
(0.000113050645 0.088752836 0)
(0.000112469245 0.0880844021 0)
(0.000111895568 0.0874353992 0)
(0.000111329493 0.0868052162 0)
(0.000110770932 0.086193268 0)
(0.000110219764 0.0855989939 -6.3639664e-20)
(0.000109675886 0.0850218567 0)
(0.00010913919 0.0844613411 0)
(0.0001086096 0.0839169528 0)
(0.000108087013 0.0833882175 6.15756382e-20)
(0.000107571239 0.0828746797 0)
(0.000107061776 0.0823759018 0)
(0.000106558613 0.0818914633 0)
(0.000106065698 0.0814209599 5.96225093e-20)
(0.000105592058 0.0809640026 0)
(0.000105117951 0.0805202172 0)
(0.000104504691 0.0800892426 0)
(0.00010362047 0.0796707299 5.77739767e-20)
(0.000103550126 0.0792643396 0)
(0.000108214423 0.078869741 0)
(0.000115940548 0.0784866134 0)
(8.43476222e-05 0.0781146111 0)
)
;

boundaryField
{
    left
    {
        type            wedge;
    }
    right
    {
        type            wedge;
    }
    outerWall
    {
        type            navierSlip;
        value           uniform (0 0.0779395381 0);
        slipLength      uniform 1;
        wallVelocity    uniform (0 0 0);
    }
    innerWall
    {
        type            rotatingWallVelocity;
        origin          (0 0 0);
        axis            (0 0 1);
        omega           constant 12.566;
        value           uniform (0 0.628204307 -0);
    }
    frontAndBack
    {
        type            empty;
    }
}


// ************************************************************************* //
