/*--------------------------------*- C++ -*----------------------------------*\
| =========                 |                                                 |
| \\      /  F ield         | OpenFOAM: The Open Source CFD Toolbox           |
|  \\    /   O peration     | Version:  2206                                  |
|   \\  /    A nd           | Website:  www.openfoam.com                      |
|    \\/     M anipulation  |                                                 |
\*---------------------------------------------------------------------------*/
FoamFile
{
    version     2.0;
    format      ascii;
    arch        "LSB;label=32;scalar=64";
    class       volScalarField;
    location    "24";
    object      p;
}
// * * * * * * * * * * * * * * * * * * * * * * * * * * * * * * * * * * * * * //

dimensions      [0 2 -2 0 0 0 0];

internalField   nonuniform List<scalar> 
70000
(
3.48888e-07
6.29367e-07
6.65677e-07
6.60282e-07
6.27828e-07
6.25263e-07
5.93904e-07
5.95901e-07
5.75732e-07
5.77545e-07
5.65585e-07
5.66257e-07
5.58144e-07
5.58392e-07
5.52182e-07
5.5217e-07
5.47045e-07
5.47034e-07
5.42725e-07
5.42649e-07
5.38933e-07
5.38899e-07
5.3572e-07
5.35666e-07
5.32921e-07
5.32883e-07
5.30536e-07
5.30484e-07
5.2848e-07
5.28428e-07
5.26742e-07
5.26694e-07
5.25297e-07
5.25248e-07
5.24107e-07
5.2406e-07
5.23149e-07
5.231e-07
5.22402e-07
5.22355e-07
5.21858e-07
5.21811e-07
5.21506e-07
5.21461e-07
5.21343e-07
5.21297e-07
5.21357e-07
5.21313e-07
5.21547e-07
5.21502e-07
5.21903e-07
5.21859e-07
5.22423e-07
5.22379e-07
5.231e-07
5.23057e-07
5.23931e-07
5.23888e-07
5.24912e-07
5.24869e-07
5.26039e-07
5.25995e-07
5.27308e-07
5.27265e-07
5.28717e-07
5.28674e-07
5.30263e-07
5.3022e-07
5.31944e-07
5.31901e-07
5.33757e-07
5.33714e-07
5.357e-07
5.35657e-07
5.3777e-07
5.37728e-07
5.39968e-07
5.39925e-07
5.42289e-07
5.42247e-07
5.44734e-07
5.44691e-07
5.473e-07
5.47257e-07
5.49986e-07
5.49943e-07
5.5279e-07
5.52748e-07
5.55713e-07
5.5567e-07
5.58751e-07
5.58709e-07
5.61905e-07
5.61863e-07
5.65174e-07
5.65131e-07
5.68556e-07
5.68513e-07
5.7205e-07
5.72007e-07
5.75656e-07
5.75613e-07
5.79373e-07
5.7933e-07
5.832e-07
5.83158e-07
5.87137e-07
5.87094e-07
5.91183e-07
5.9114e-07
5.95337e-07
5.95294e-07
5.99598e-07
5.99555e-07
6.03966e-07
6.03924e-07
6.08441e-07
6.08399e-07
6.13022e-07
6.1298e-07
6.17709e-07
6.17666e-07
6.225e-07
6.22458e-07
6.27397e-07
6.27354e-07
6.32397e-07
6.32354e-07
6.37501e-07
6.37458e-07
6.42709e-07
6.42666e-07
6.48019e-07
6.47976e-07
6.53432e-07
6.5339e-07
6.58948e-07
6.58905e-07
6.64565e-07
6.64523e-07
6.70285e-07
6.70242e-07
6.76106e-07
6.76063e-07
6.82027e-07
6.81985e-07
6.8805e-07
6.88007e-07
6.94174e-07
6.94131e-07
7.00397e-07
7.00354e-07
7.06721e-07
7.06678e-07
7.13145e-07
7.13102e-07
7.19668e-07
7.19625e-07
7.26291e-07
7.26248e-07
7.33013e-07
7.3297e-07
7.39834e-07
7.39791e-07
7.46754e-07
7.46711e-07
7.53772e-07
7.5373e-07
7.60889e-07
7.60847e-07
7.68105e-07
7.68062e-07
7.75418e-07
7.75375e-07
7.8283e-07
7.82787e-07
7.90339e-07
7.90296e-07
7.97946e-07
7.97903e-07
8.0565e-07
8.05608e-07
8.13452e-07
8.1341e-07
8.21352e-07
8.21309e-07
8.29348e-07
8.29305e-07
8.37441e-07
8.37398e-07
8.45631e-07
8.45588e-07
8.53918e-07
8.53875e-07
8.62302e-07
8.62259e-07
8.70782e-07
8.70739e-07
8.79358e-07
8.79315e-07
8.88031e-07
8.87988e-07
8.968e-07
8.96757e-07
9.05665e-07
9.05622e-07
9.14626e-07
9.14583e-07
9.23683e-07
9.2364e-07
9.32836e-07
9.32793e-07
9.42085e-07
9.42042e-07
9.51429e-07
9.51386e-07
9.60869e-07
9.60826e-07
9.70404e-07
9.70361e-07
9.80035e-07
9.79992e-07
9.89761e-07
9.89718e-07
9.99582e-07
9.9954e-07
1.0095e-06
1.00946e-06
1.01951e-06
1.01947e-06
1.02962e-06
1.02957e-06
1.03982e-06
1.03978e-06
1.05012e-06
1.05007e-06
1.06051e-06
1.06046e-06
1.07099e-06
1.07095e-06
1.08157e-06
1.08153e-06
1.09225e-06
1.09221e-06
1.10302e-06
1.10298e-06
1.11389e-06
1.11384e-06
1.12484e-06
1.1248e-06
1.1359e-06
1.13586e-06
1.14705e-06
1.147e-06
1.15829e-06
1.15825e-06
1.16963e-06
1.16958e-06
1.18106e-06
1.18101e-06
1.19258e-06
1.19254e-06
1.2042e-06
1.20416e-06
1.21592e-06
1.21587e-06
1.22772e-06
1.22768e-06
1.23963e-06
1.23958e-06
1.25162e-06
1.25158e-06
1.26371e-06
1.26367e-06
1.27589e-06
1.27585e-06
1.28817e-06
1.28813e-06
1.30054e-06
1.3005e-06
1.31301e-06
1.31297e-06
1.32557e-06
1.32552e-06
1.33822e-06
1.33818e-06
1.35097e-06
1.35092e-06
1.36381e-06
1.36376e-06
1.37674e-06
1.3767e-06
1.38977e-06
1.38972e-06
1.40289e-06
1.40284e-06
1.4161e-06
1.41606e-06
1.42941e-06
1.42937e-06
1.44281e-06
1.44277e-06
1.45631e-06
1.45626e-06
1.46989e-06
1.46985e-06
1.48357e-06
1.48353e-06
1.49735e-06
1.49731e-06
1.51122e-06
1.51117e-06
1.52518e-06
1.52514e-06
1.53923e-06
1.53919e-06
1.55338e-06
1.55334e-06
1.56762e-06
1.56758e-06
1.58196e-06
1.58191e-06
1.59638e-06
1.59634e-06
1.6109e-06
1.61086e-06
1.62552e-06
1.62548e-06
1.64022e-06
1.64018e-06
1.65502e-06
1.65498e-06
1.66992e-06
1.66987e-06
1.6849e-06
1.68486e-06
1.69998e-06
1.69994e-06
1.71515e-06
1.71511e-06
1.73042e-06
1.73038e-06
1.74578e-06
1.74573e-06
1.76123e-06
1.76119e-06
1.77677e-06
1.77673e-06
1.79241e-06
1.79237e-06
1.80814e-06
1.8081e-06
1.82396e-06
1.82392e-06
1.83988e-06
1.83983e-06
1.85588e-06
1.85584e-06
1.87198e-06
1.87194e-06
1.88818e-06
1.88814e-06
1.90446e-06
1.90442e-06
1.92084e-06
1.9208e-06
1.93732e-06
1.93727e-06
1.95388e-06
1.95384e-06
1.97054e-06
1.97049e-06
1.98729e-06
1.98724e-06
2.00413e-06
2.00409e-06
2.02107e-06
2.02102e-06
2.03809e-06
2.03805e-06
2.05521e-06
2.05517e-06
2.07243e-06
2.07238e-06
2.08973e-06
2.08969e-06
2.10713e-06
2.10709e-06
2.12462e-06
2.12458e-06
2.14221e-06
2.14216e-06
2.15988e-06
2.15984e-06
2.17765e-06
2.17761e-06
2.19551e-06
2.19547e-06
2.21347e-06
2.21342e-06
2.23151e-06
2.23147e-06
2.24965e-06
2.24961e-06
2.26788e-06
2.26784e-06
2.28621e-06
2.28616e-06
2.30462e-06
2.30458e-06
2.32313e-06
2.32309e-06
2.34173e-06
2.34169e-06
2.36043e-06
2.36038e-06
2.37921e-06
2.37917e-06
2.39809e-06
2.39805e-06
2.41706e-06
2.41702e-06
2.43612e-06
2.43608e-06
2.45528e-06
2.45524e-06
2.47453e-06
2.47448e-06
2.49387e-06
2.49382e-06
2.5133e-06
2.51326e-06
2.53282e-06
2.53278e-06
2.55244e-06
2.5524e-06
2.57215e-06
2.57211e-06
2.59195e-06
2.59191e-06
2.61185e-06
2.6118e-06
2.63183e-06
2.63179e-06
2.65191e-06
2.65187e-06
2.67208e-06
2.67204e-06
2.69234e-06
2.6923e-06
2.7127e-06
2.71266e-06
2.73315e-06
2.7331e-06
2.75369e-06
2.75364e-06
2.77432e-06
2.77428e-06
2.79504e-06
2.795e-06
2.81586e-06
2.81582e-06
2.83677e-06
2.83672e-06
2.85777e-06
2.85773e-06
2.87886e-06
2.87882e-06
2.90005e-06
2.9e-06
2.92132e-06
2.92128e-06
2.94269e-06
2.94265e-06
2.96416e-06
2.96411e-06
2.98571e-06
2.98567e-06
3.00735e-06
3.00731e-06
3.02909e-06
3.02905e-06
3.05092e-06
3.05088e-06
3.07285e-06
3.0728e-06
3.09486e-06
3.09482e-06
3.11697e-06
3.11692e-06
3.13917e-06
3.13912e-06
3.16146e-06
3.16141e-06
3.18384e-06
3.1838e-06
3.20631e-06
3.20627e-06
3.22888e-06
3.22884e-06
3.25154e-06
3.2515e-06
3.27429e-06
3.27425e-06
3.29713e-06
3.29709e-06
3.32007e-06
3.32003e-06
3.3431e-06
3.34305e-06
3.36622e-06
3.36617e-06
3.38943e-06
3.38938e-06
3.41273e-06
3.41269e-06
3.43613e-06
3.43608e-06
3.45961e-06
3.45957e-06
3.48319e-06
3.48315e-06
3.50686e-06
3.50682e-06
3.53063e-06
3.53058e-06
3.55448e-06
3.55444e-06
3.57843e-06
3.57839e-06
3.60247e-06
3.60243e-06
3.6266e-06
3.62656e-06
3.65082e-06
3.65078e-06
3.67514e-06
3.6751e-06
3.69955e-06
3.6995e-06
3.72405e-06
3.724e-06
3.74864e-06
3.74859e-06
3.77332e-06
3.77328e-06
3.7981e-06
3.79805e-06
3.82296e-06
3.82292e-06
3.84792e-06
3.84788e-06
3.87297e-06
3.87293e-06
3.89812e-06
3.89807e-06
3.92335e-06
3.92331e-06
3.94868e-06
3.94863e-06
3.9741e-06
3.97405e-06
3.99961e-06
3.99956e-06
4.02521e-06
4.02516e-06
4.0509e-06
4.05086e-06
4.07669e-06
4.07665e-06
4.10257e-06
4.10252e-06
4.12854e-06
4.12849e-06
4.1546e-06
4.15456e-06
4.18075e-06
4.18071e-06
4.207e-06
4.20695e-06
4.23334e-06
4.23329e-06
4.25976e-06
4.25972e-06
4.28629e-06
4.28624e-06
4.3129e-06
4.31286e-06
4.3396e-06
4.33956e-06
4.3664e-06
4.36636e-06
4.39329e-06
4.39325e-06
4.42027e-06
4.42023e-06
4.44734e-06
4.4473e-06
4.47451e-06
4.47446e-06
4.50176e-06
4.50172e-06
4.52911e-06
4.52907e-06
4.55655e-06
4.55651e-06
4.58408e-06
4.58404e-06
4.61171e-06
4.61166e-06
4.63942e-06
4.63938e-06
4.66723e-06
4.66719e-06
4.69513e-06
4.69508e-06
4.72312e-06
4.72307e-06
4.7512e-06
4.75116e-06
4.77937e-06
4.77933e-06
4.80764e-06
4.8076e-06
4.836e-06
4.83596e-06
4.86445e-06
4.86441e-06
4.89299e-06
4.89295e-06
4.92162e-06
4.92158e-06
4.95035e-06
4.9503e-06
4.97916e-06
4.97912e-06
5.00807e-06
5.00803e-06
5.03707e-06
5.03703e-06
5.06617e-06
5.06612e-06
5.09535e-06
5.09531e-06
5.12463e-06
5.12458e-06
5.15399e-06
5.15395e-06
5.18345e-06
5.18341e-06
5.213e-06
5.21296e-06
5.24265e-06
5.2426e-06
5.27238e-06
5.27234e-06
5.30221e-06
5.30216e-06
5.33213e-06
5.33208e-06
5.36214e-06
5.36209e-06
5.39224e-06
5.39219e-06
5.42243e-06
5.42239e-06
5.45271e-06
5.45267e-06
5.48309e-06
5.48305e-06
5.51356e-06
5.51352e-06
5.54412e-06
5.54408e-06
5.57477e-06
5.57473e-06
5.60552e-06
5.60547e-06
5.63635e-06
5.63631e-06
5.66728e-06
5.66724e-06
5.6983e-06
5.69825e-06
5.72941e-06
5.72937e-06
5.76061e-06
5.76057e-06
5.7919e-06
5.79186e-06
5.82329e-06
5.82325e-06
5.85477e-06
5.85472e-06
5.88634e-06
5.88629e-06
5.918e-06
5.91795e-06
5.94975e-06
5.94971e-06
5.98159e-06
5.98155e-06
6.01353e-06
6.01349e-06
6.04556e-06
6.04552e-06
6.07768e-06
6.07763e-06
6.10989e-06
6.10985e-06
6.14219e-06
6.14215e-06
6.17459e-06
6.17454e-06
6.20707e-06
6.20703e-06
6.23965e-06
6.23961e-06
6.27232e-06
6.27228e-06
6.30508e-06
6.30504e-06
6.33793e-06
6.33789e-06
6.37088e-06
6.37084e-06
6.40391e-06
6.40387e-06
6.43704e-06
6.437e-06
6.47026e-06
6.47022e-06
6.50357e-06
6.50353e-06
6.53698e-06
6.53693e-06
6.57047e-06
6.57043e-06
6.60406e-06
6.60401e-06
6.63774e-06
6.63769e-06
6.6715e-06
6.67146e-06
6.70537e-06
6.70532e-06
6.73932e-06
6.73928e-06
6.77336e-06
6.77332e-06
6.8075e-06
6.80746e-06
6.84173e-06
6.84168e-06
6.87605e-06
6.876e-06
6.91046e-06
6.91042e-06
6.94496e-06
6.94492e-06
6.97956e-06
6.97951e-06
7.01424e-06
7.0142e-06
7.04902e-06
7.04898e-06
7.08389e-06
7.08385e-06
7.11885e-06
7.11881e-06
7.1539e-06
7.15386e-06
7.18905e-06
7.189e-06
7.22428e-06
7.22424e-06
7.25961e-06
7.25957e-06
7.29503e-06
7.29499e-06
7.33054e-06
7.3305e-06
7.36614e-06
7.3661e-06
7.40184e-06
7.40179e-06
7.43762e-06
7.43758e-06
7.4735e-06
7.47346e-06
7.50947e-06
7.50943e-06
7.54553e-06
7.54549e-06
7.58168e-06
7.58164e-06
7.61793e-06
7.61788e-06
7.65426e-06
7.65422e-06
7.69069e-06
7.69064e-06
7.72721e-06
7.72716e-06
7.76382e-06
7.76377e-06
7.80052e-06
7.80048e-06
7.83731e-06
7.83727e-06
7.8742e-06
7.87415e-06
7.91117e-06
7.91113e-06
7.94824e-06
7.9482e-06
7.9854e-06
7.98536e-06
8.02265e-06
8.02261e-06
8.06e-06
8.05995e-06
8.09743e-06
8.09739e-06
8.13496e-06
8.13492e-06
8.17258e-06
8.17253e-06
8.21029e-06
8.21024e-06
8.24809e-06
8.24804e-06
8.28598e-06
8.28594e-06
8.32396e-06
8.32392e-06
8.36204e-06
8.362e-06
8.40021e-06
8.40016e-06
8.43847e-06
8.43842e-06
8.47682e-06
8.47677e-06
8.51526e-06
8.51522e-06
8.55379e-06
8.55375e-06
8.59242e-06
8.59238e-06
8.63114e-06
8.63109e-06
8.66994e-06
8.6699e-06
8.70884e-06
8.7088e-06
8.74784e-06
8.74779e-06
8.78692e-06
8.78688e-06
8.82609e-06
8.82605e-06
8.86536e-06
8.86532e-06
8.90472e-06
8.90468e-06
8.94417e-06
8.94413e-06
8.98371e-06
8.98367e-06
9.02334e-06
9.0233e-06
9.06307e-06
9.06302e-06
9.10288e-06
9.10284e-06
9.14279e-06
9.14275e-06
9.18279e-06
9.18275e-06
9.22288e-06
9.22284e-06
9.26306e-06
9.26302e-06
9.30334e-06
9.30329e-06
9.3437e-06
9.34366e-06
9.38416e-06
9.38411e-06
9.42471e-06
9.42466e-06
9.46535e-06
9.4653e-06
9.50608e-06
9.50603e-06
9.5469e-06
9.54686e-06
9.58782e-06
9.58777e-06
9.62882e-06
9.62878e-06
9.66992e-06
9.66988e-06
9.71111e-06
9.71107e-06
9.75239e-06
9.75235e-06
9.79376e-06
9.79372e-06
9.83523e-06
9.83518e-06
9.87678e-06
9.87674e-06
9.91843e-06
9.91839e-06
9.96017e-06
9.96012e-06
1.0002e-05
1.0002e-05
1.00439e-05
1.00439e-05
1.00859e-05
1.00859e-05
1.0128e-05
1.0128e-05
1.01702e-05
1.01702e-05
1.02125e-05
1.02125e-05
1.02549e-05
1.02549e-05
1.02974e-05
1.02973e-05
1.03399e-05
1.03399e-05
1.03826e-05
1.03825e-05
1.04253e-05
1.04253e-05
1.04682e-05
1.04681e-05
1.05111e-05
1.05111e-05
1.05541e-05
1.05541e-05
1.05972e-05
1.05972e-05
1.06404e-05
1.06404e-05
1.06837e-05
1.06837e-05
1.07271e-05
1.07271e-05
1.07706e-05
1.07706e-05
1.08142e-05
1.08141e-05
1.08578e-05
1.08578e-05
1.09016e-05
1.09015e-05
1.09454e-05
1.09454e-05
1.09894e-05
1.09893e-05
1.10334e-05
1.10333e-05
1.10775e-05
1.10775e-05
1.11217e-05
1.11217e-05
1.1166e-05
1.1166e-05
1.12104e-05
1.12104e-05
1.12549e-05
1.12548e-05
1.12995e-05
1.12994e-05
1.13441e-05
1.13441e-05
1.13889e-05
1.13889e-05
1.14337e-05
1.14337e-05
1.14787e-05
1.14786e-05
1.15237e-05
1.15237e-05
1.15688e-05
1.15688e-05
1.16141e-05
1.1614e-05
1.16594e-05
1.16593e-05
1.17048e-05
1.17047e-05
1.17503e-05
1.17502e-05
1.17958e-05
1.17958e-05
1.18415e-05
1.18415e-05
1.18873e-05
1.18872e-05
1.19331e-05
1.19331e-05
1.19791e-05
1.1979e-05
1.20251e-05
1.20251e-05
1.20713e-05
1.20712e-05
1.21175e-05
1.21174e-05
1.21638e-05
1.21638e-05
1.22102e-05
1.22102e-05
1.22567e-05
1.22567e-05
1.23033e-05
1.23033e-05
1.235e-05
1.23499e-05
1.23968e-05
1.23967e-05
1.24436e-05
1.24436e-05
1.24906e-05
1.24905e-05
1.25376e-05
1.25376e-05
1.25848e-05
1.25847e-05
1.2632e-05
1.26319e-05
1.26793e-05
1.26793e-05
1.27267e-05
1.27267e-05
1.27742e-05
1.27742e-05
1.28218e-05
1.28218e-05
1.28695e-05
1.28695e-05
1.29173e-05
1.29172e-05
1.29652e-05
1.29651e-05
1.30131e-05
1.30131e-05
1.30612e-05
1.30611e-05
1.31093e-05
1.31093e-05
1.31576e-05
1.31575e-05
1.32059e-05
1.32058e-05
1.32543e-05
1.32543e-05
1.33028e-05
1.33028e-05
1.33514e-05
1.33514e-05
1.34001e-05
1.34001e-05
1.34489e-05
1.34489e-05
1.34978e-05
1.34977e-05
1.35467e-05
1.35467e-05
1.35958e-05
1.35958e-05
1.3645e-05
1.36449e-05
1.36942e-05
1.36942e-05
1.37435e-05
1.37435e-05
1.3793e-05
1.37929e-05
1.38425e-05
1.38424e-05
1.38921e-05
1.3892e-05
1.39418e-05
1.39417e-05
1.39916e-05
1.39915e-05
1.40415e-05
1.40414e-05
1.40914e-05
1.40914e-05
1.41415e-05
1.41415e-05
1.41917e-05
1.41916e-05
1.42419e-05
1.42419e-05
1.42922e-05
1.42922e-05
1.43427e-05
1.43426e-05
1.43932e-05
1.43932e-05
1.44438e-05
1.44438e-05
1.44945e-05
1.44945e-05
1.45453e-05
1.45453e-05
1.45962e-05
1.45962e-05
1.46472e-05
1.46471e-05
1.46983e-05
1.46982e-05
1.47494e-05
1.47494e-05
1.48007e-05
1.48006e-05
1.4852e-05
1.4852e-05
1.49035e-05
1.49034e-05
1.4955e-05
1.4955e-05
1.50066e-05
1.50066e-05
1.50583e-05
1.50583e-05
1.51101e-05
1.51101e-05
1.5162e-05
1.5162e-05
1.5214e-05
1.5214e-05
1.52661e-05
1.52661e-05
1.53183e-05
1.53182e-05
1.53705e-05
1.53705e-05
1.54229e-05
1.54228e-05
1.54753e-05
1.54753e-05
1.55279e-05
1.55278e-05
1.55805e-05
1.55804e-05
1.56332e-05
1.56332e-05
1.5686e-05
1.5686e-05
1.57389e-05
1.57389e-05
1.57919e-05
1.57919e-05
1.5845e-05
1.5845e-05
1.58982e-05
1.58981e-05
1.59514e-05
1.59514e-05
1.60048e-05
1.60048e-05
1.60583e-05
1.60582e-05
1.61118e-05
1.61118e-05
1.61654e-05
1.61654e-05
1.62192e-05
1.62191e-05
1.6273e-05
1.62729e-05
1.63269e-05
1.63268e-05
1.63809e-05
1.63808e-05
1.6435e-05
1.64349e-05
1.64892e-05
1.64891e-05
1.65434e-05
1.65434e-05
1.65978e-05
1.65978e-05
1.66523e-05
1.66522e-05
1.67068e-05
1.67068e-05
1.67614e-05
1.67614e-05
1.68162e-05
1.68161e-05
1.6871e-05
1.6871e-05
1.69259e-05
1.69259e-05
1.69809e-05
1.69809e-05
1.7036e-05
1.7036e-05
1.70912e-05
1.70912e-05
1.71465e-05
1.71464e-05
1.72019e-05
1.72018e-05
1.72573e-05
1.72573e-05
1.73129e-05
1.73128e-05
1.73685e-05
1.73685e-05
1.74243e-05
1.74242e-05
1.74801e-05
1.748e-05
1.7536e-05
1.7536e-05
1.7592e-05
1.7592e-05
1.76481e-05
1.76481e-05
1.77043e-05
1.77043e-05
1.77606e-05
1.77606e-05
1.7817e-05
1.78169e-05
1.78734e-05
1.78734e-05
1.793e-05
1.793e-05
1.79867e-05
1.79866e-05
1.80434e-05
1.80434e-05
1.81002e-05
1.81002e-05
1.81572e-05
1.81571e-05
1.82142e-05
1.82141e-05
1.82713e-05
1.82712e-05
1.83285e-05
1.83284e-05
1.83858e-05
1.83857e-05
1.84432e-05
1.84431e-05
1.85006e-05
1.85006e-05
1.85582e-05
1.85582e-05
1.86159e-05
1.86158e-05
1.86736e-05
1.86736e-05
1.87314e-05
1.87314e-05
1.87894e-05
1.87893e-05
1.88474e-05
1.88474e-05
1.89055e-05
1.89055e-05
1.89637e-05
1.89637e-05
1.9022e-05
1.9022e-05
1.90804e-05
1.90804e-05
1.91389e-05
1.91389e-05
1.91975e-05
1.91974e-05
1.92561e-05
1.92561e-05
1.93149e-05
1.93148e-05
1.93737e-05
1.93737e-05
1.94327e-05
1.94326e-05
1.94917e-05
1.94917e-05
1.95508e-05
1.95508e-05
1.961e-05
1.961e-05
1.96693e-05
1.96693e-05
1.97287e-05
1.97287e-05
1.97882e-05
1.97882e-05
1.98478e-05
1.98478e-05
1.99075e-05
1.99074e-05
1.99672e-05
1.99672e-05
2.00271e-05
2.0027e-05
2.0087e-05
2.0087e-05
2.01471e-05
2.0147e-05
2.02072e-05
2.02071e-05
2.02674e-05
2.02674e-05
2.03277e-05
2.03277e-05
2.03881e-05
2.03881e-05
2.04486e-05
2.04486e-05
2.05092e-05
2.05091e-05
2.05699e-05
2.05698e-05
2.06306e-05
2.06306e-05
2.06915e-05
2.06914e-05
2.07524e-05
2.07524e-05
2.08135e-05
2.08134e-05
2.08746e-05
2.08746e-05
2.09358e-05
2.09358e-05
2.09972e-05
2.09971e-05
2.10586e-05
2.10585e-05
2.11201e-05
2.112e-05
2.11816e-05
2.11816e-05
2.12433e-05
2.12433e-05
2.13051e-05
2.13051e-05
2.1367e-05
2.13669e-05
2.14289e-05
2.14289e-05
2.1491e-05
2.14909e-05
2.15531e-05
2.15531e-05
2.16153e-05
2.16153e-05
2.16777e-05
2.16776e-05
2.17401e-05
2.174e-05
2.18026e-05
2.18025e-05
2.18652e-05
2.18651e-05
2.19279e-05
2.19278e-05
2.19906e-05
2.19906e-05
2.20535e-05
2.20535e-05
2.21165e-05
2.21164e-05
2.21795e-05
2.21795e-05
2.22427e-05
2.22426e-05
2.23059e-05
2.23059e-05
2.23692e-05
2.23692e-05
2.24326e-05
2.24326e-05
2.24961e-05
2.24961e-05
2.25598e-05
2.25597e-05
2.26234e-05
2.26234e-05
2.26872e-05
2.26872e-05
2.27511e-05
2.27511e-05
2.28151e-05
2.2815e-05
2.28791e-05
2.28791e-05
2.29433e-05
2.29432e-05
2.30075e-05
2.30075e-05
2.30719e-05
2.30718e-05
2.31363e-05
2.31362e-05
2.32008e-05
2.32007e-05
2.32654e-05
2.32654e-05
2.33301e-05
2.33301e-05
2.33949e-05
2.33948e-05
2.34598e-05
2.34597e-05
2.35247e-05
2.35247e-05
2.35898e-05
2.35898e-05
2.3655e-05
2.36549e-05
2.37202e-05
2.37202e-05
2.37855e-05
2.37855e-05
2.3851e-05
2.38509e-05
2.39165e-05
2.39165e-05
2.39821e-05
2.39821e-05
2.40478e-05
2.40478e-05
2.41136e-05
2.41136e-05
2.41795e-05
2.41794e-05
2.42455e-05
2.42454e-05
2.43115e-05
2.43115e-05
2.43777e-05
2.43777e-05
2.4444e-05
2.44439e-05
2.45103e-05
2.45103e-05
2.45767e-05
2.45767e-05
2.46433e-05
2.46432e-05
2.47099e-05
2.47098e-05
2.47766e-05
2.47765e-05
2.48434e-05
2.48433e-05
2.49103e-05
2.49102e-05
2.49773e-05
2.49772e-05
2.50443e-05
2.50443e-05
2.51115e-05
2.51115e-05
2.51788e-05
2.51787e-05
2.52461e-05
2.52461e-05
2.53136e-05
2.53135e-05
2.53811e-05
2.5381e-05
2.54487e-05
2.54487e-05
2.55164e-05
2.55164e-05
2.55842e-05
2.55842e-05
2.56521e-05
2.56521e-05
2.57201e-05
2.57201e-05
2.57882e-05
2.57882e-05
2.58564e-05
2.58563e-05
2.59246e-05
2.59246e-05
2.5993e-05
2.59929e-05
2.60614e-05
2.60614e-05
2.613e-05
2.61299e-05
2.61986e-05
2.61986e-05
2.62673e-05
2.62673e-05
2.63361e-05
2.63361e-05
2.6405e-05
2.6405e-05
2.6474e-05
2.6474e-05
2.65431e-05
2.65431e-05
2.66123e-05
2.66123e-05
2.66816e-05
2.66815e-05
2.67509e-05
2.67509e-05
2.68204e-05
2.68203e-05
2.68899e-05
2.68899e-05
2.69596e-05
2.69595e-05
2.70293e-05
2.70292e-05
2.70991e-05
2.70991e-05
2.7169e-05
2.7169e-05
2.7239e-05
2.7239e-05
2.73091e-05
2.73091e-05
2.73793e-05
2.73792e-05
2.74496e-05
2.74495e-05
2.75199e-05
2.75199e-05
2.75904e-05
2.75903e-05
2.76609e-05
2.76609e-05
2.77316e-05
2.77315e-05
2.78023e-05
2.78023e-05
2.78731e-05
2.78731e-05
2.7944e-05
2.7944e-05
2.80151e-05
2.8015e-05
2.80862e-05
2.80861e-05
2.81573e-05
2.81573e-05
2.82286e-05
2.82286e-05
2.83e-05
2.82999e-05
2.83715e-05
2.83714e-05
2.8443e-05
2.8443e-05
2.85147e-05
2.85146e-05
2.85864e-05
2.85863e-05
2.86582e-05
2.86582e-05
2.87301e-05
2.87301e-05
2.88022e-05
2.88021e-05
2.88743e-05
2.88742e-05
2.89464e-05
2.89464e-05
2.90187e-05
2.90187e-05
2.90911e-05
2.90911e-05
2.91636e-05
2.91635e-05
2.92361e-05
2.92361e-05
2.93088e-05
2.93087e-05
2.93815e-05
2.93815e-05
2.94544e-05
2.94543e-05
2.95273e-05
2.95273e-05
2.96003e-05
2.96003e-05
2.96734e-05
2.96734e-05
2.97466e-05
2.97466e-05
2.98199e-05
2.98199e-05
2.98933e-05
2.98933e-05
2.99668e-05
2.99667e-05
3.00403e-05
3.00403e-05
3.0114e-05
3.01139e-05
3.01877e-05
3.01877e-05
3.02616e-05
3.02615e-05
3.03355e-05
3.03355e-05
3.04095e-05
3.04095e-05
3.04836e-05
3.04836e-05
3.05579e-05
3.05578e-05
3.06321e-05
3.06321e-05
3.07065e-05
3.07065e-05
3.0781e-05
3.0781e-05
3.08556e-05
3.08555e-05
3.09302e-05
3.09302e-05
3.1005e-05
3.1005e-05
3.10798e-05
3.10798e-05
3.11548e-05
3.11547e-05
3.12298e-05
3.12298e-05
3.13049e-05
3.13049e-05
3.13801e-05
3.13801e-05
3.14554e-05
3.14554e-05
3.15308e-05
3.15308e-05
3.16063e-05
3.16063e-05
3.16819e-05
3.16819e-05
3.17576e-05
3.17575e-05
3.18333e-05
3.18333e-05
3.19092e-05
3.19091e-05
3.19851e-05
3.19851e-05
3.20612e-05
3.20611e-05
3.21373e-05
3.21372e-05
3.22135e-05
3.22134e-05
3.22898e-05
3.22898e-05
3.23662e-05
3.23662e-05
3.24427e-05
3.24426e-05
3.25193e-05
3.25192e-05
3.25959e-05
3.25959e-05
3.26727e-05
3.26727e-05
3.27496e-05
3.27495e-05
3.28265e-05
3.28265e-05
3.29035e-05
3.29035e-05
3.29807e-05
3.29806e-05
3.30579e-05
3.30579e-05
3.31352e-05
3.31352e-05
3.32126e-05
3.32126e-05
3.32901e-05
3.32901e-05
3.33677e-05
3.33677e-05
3.34454e-05
3.34453e-05
3.35231e-05
3.35231e-05
3.3601e-05
3.3601e-05
3.3679e-05
3.36789e-05
3.3757e-05
3.3757e-05
3.38351e-05
3.38351e-05
3.39134e-05
3.39133e-05
3.39917e-05
3.39916e-05
3.40701e-05
3.40701e-05
3.41486e-05
3.41486e-05
3.42272e-05
3.42271e-05
3.43059e-05
3.43058e-05
3.43847e-05
3.43846e-05
3.44635e-05
3.44635e-05
3.45425e-05
3.45424e-05
3.46215e-05
3.46215e-05
3.47007e-05
3.47006e-05
3.47799e-05
3.47799e-05
3.48592e-05
3.48592e-05
3.49386e-05
3.49386e-05
3.50181e-05
3.50181e-05
3.50977e-05
3.50977e-05
3.51774e-05
3.51774e-05
3.52572e-05
3.52572e-05
3.53371e-05
3.5337e-05
3.5417e-05
3.5417e-05
3.54971e-05
3.54971e-05
3.55772e-05
3.55772e-05
3.56575e-05
3.56574e-05
3.57378e-05
3.57378e-05
3.58182e-05
3.58182e-05
3.58987e-05
3.58987e-05
3.59793e-05
3.59793e-05
3.606e-05
3.606e-05
3.61408e-05
3.61408e-05
3.62217e-05
3.62217e-05
3.63027e-05
3.63026e-05
3.63837e-05
3.63837e-05
3.64649e-05
3.64648e-05
3.65461e-05
3.65461e-05
3.66275e-05
3.66274e-05
3.67089e-05
3.67088e-05
3.67904e-05
3.67904e-05
3.6872e-05
3.6872e-05
3.69537e-05
3.69537e-05
3.70355e-05
3.70355e-05
3.71174e-05
3.71173e-05
3.71994e-05
3.71993e-05
3.72814e-05
3.72814e-05
3.73636e-05
3.73635e-05
3.74458e-05
3.74458e-05
3.75282e-05
3.75281e-05
3.76106e-05
3.76106e-05
3.76931e-05
3.76931e-05
3.77757e-05
3.77757e-05
3.78584e-05
3.78584e-05
3.79412e-05
3.79412e-05
3.80241e-05
3.80241e-05
3.81071e-05
3.81071e-05
3.81902e-05
3.81901e-05
3.82733e-05
3.82733e-05
3.83566e-05
3.83566e-05
3.84399e-05
3.84399e-05
3.85234e-05
3.85233e-05
3.86069e-05
3.86069e-05
3.86905e-05
3.86905e-05
3.87742e-05
3.87742e-05
3.8858e-05
3.8858e-05
3.89419e-05
3.89419e-05
3.90259e-05
3.90259e-05
3.911e-05
3.91099e-05
3.91942e-05
3.91941e-05
3.92784e-05
3.92784e-05
3.93628e-05
3.93627e-05
3.94472e-05
3.94472e-05
3.95317e-05
3.95317e-05
3.96164e-05
3.96163e-05
3.97011e-05
3.9701e-05
3.97859e-05
3.97858e-05
3.98708e-05
3.98707e-05
3.99558e-05
3.99557e-05
4.00409e-05
4.00408e-05
4.0126e-05
4.0126e-05
4.02113e-05
4.02113e-05
4.02967e-05
4.02966e-05
4.03821e-05
4.03821e-05
4.04676e-05
4.04676e-05
4.05533e-05
4.05532e-05
4.0639e-05
4.06389e-05
4.07248e-05
4.07248e-05
4.08107e-05
4.08107e-05
4.08967e-05
4.08967e-05
4.09828e-05
4.09827e-05
4.1069e-05
4.10689e-05
4.11552e-05
4.11552e-05
4.12416e-05
4.12416e-05
4.1328e-05
4.1328e-05
4.14146e-05
4.14145e-05
4.15012e-05
4.15012e-05
4.1588e-05
4.15879e-05
4.16748e-05
4.16747e-05
4.17617e-05
4.17616e-05
4.18487e-05
4.18486e-05
4.19358e-05
4.19357e-05
4.2023e-05
4.20229e-05
4.21102e-05
4.21102e-05
4.21976e-05
4.21976e-05
4.22851e-05
4.2285e-05
4.23726e-05
4.23726e-05
4.24602e-05
4.24602e-05
4.2548e-05
4.25479e-05
4.26358e-05
4.26358e-05
4.27237e-05
4.27237e-05
4.28117e-05
4.28117e-05
4.28998e-05
4.28998e-05
4.2988e-05
4.2988e-05
4.30763e-05
4.30762e-05
4.31647e-05
4.31646e-05
4.32531e-05
4.32531e-05
4.33417e-05
4.33416e-05
4.34303e-05
4.34303e-05
4.35191e-05
4.3519e-05
4.36079e-05
4.36078e-05
4.36968e-05
4.36968e-05
4.37858e-05
4.37858e-05
4.38749e-05
4.38749e-05
4.39641e-05
4.39641e-05
4.40534e-05
4.40533e-05
4.41428e-05
4.41427e-05
4.42322e-05
4.42322e-05
4.43218e-05
4.43218e-05
4.44114e-05
4.44114e-05
4.45012e-05
4.45011e-05
4.4591e-05
4.4591e-05
4.46809e-05
4.46809e-05
4.4771e-05
4.47709e-05
4.48611e-05
4.4861e-05
4.49513e-05
4.49512e-05
4.50416e-05
4.50415e-05
4.51319e-05
4.51319e-05
4.52224e-05
4.52224e-05
4.5313e-05
4.53129e-05
4.54036e-05
4.54036e-05
4.54944e-05
4.54943e-05
4.55852e-05
4.55852e-05
4.56761e-05
4.56761e-05
4.57672e-05
4.57671e-05
4.58583e-05
4.58582e-05
4.59495e-05
4.59494e-05
4.60408e-05
4.60407e-05
4.61322e-05
4.61321e-05
4.62236e-05
4.62236e-05
4.63152e-05
4.63152e-05
4.64069e-05
4.64068e-05
4.64986e-05
4.64986e-05
4.65905e-05
4.65904e-05
4.66824e-05
4.66824e-05
4.67744e-05
4.67744e-05
4.68666e-05
4.68665e-05
4.69588e-05
4.69587e-05
4.70511e-05
4.7051e-05
4.71435e-05
4.71434e-05
4.72359e-05
4.72359e-05
4.73285e-05
4.73285e-05
4.74212e-05
4.74211e-05
4.75139e-05
4.75139e-05
4.76068e-05
4.76067e-05
4.76997e-05
4.76997e-05
4.77928e-05
4.77927e-05
4.78859e-05
4.78858e-05
4.79791e-05
4.79791e-05
4.80724e-05
4.80724e-05
4.81658e-05
4.81658e-05
4.82593e-05
4.82592e-05
4.83529e-05
4.83528e-05
4.84465e-05
4.84465e-05
4.85403e-05
4.85403e-05
4.86342e-05
4.86341e-05
4.87281e-05
4.87281e-05
4.88221e-05
4.88221e-05
4.89163e-05
4.89162e-05
4.90105e-05
4.90104e-05
4.91048e-05
4.91048e-05
4.91992e-05
4.91992e-05
4.92937e-05
4.92937e-05
4.93883e-05
4.93882e-05
4.9483e-05
4.94829e-05
4.95777e-05
4.95777e-05
4.96726e-05
4.96725e-05
4.97675e-05
4.97675e-05
4.98626e-05
4.98625e-05
4.99577e-05
4.99577e-05
5.00529e-05
5.00529e-05
5.01483e-05
5.01482e-05
5.02437e-05
5.02436e-05
5.03392e-05
5.03391e-05
5.04347e-05
5.04347e-05
5.05304e-05
5.05304e-05
5.06262e-05
5.06262e-05
5.07221e-05
5.0722e-05
5.0818e-05
5.0818e-05
5.09141e-05
5.0914e-05
5.10102e-05
5.10102e-05
5.11064e-05
5.11064e-05
5.12028e-05
5.12027e-05
5.12992e-05
5.12991e-05
5.13957e-05
5.13956e-05
5.14923e-05
5.14922e-05
5.1589e-05
5.15889e-05
5.16857e-05
5.16857e-05
5.17826e-05
5.17826e-05
5.18796e-05
5.18795e-05
5.19766e-05
5.19766e-05
5.20738e-05
5.20737e-05
5.2171e-05
5.2171e-05
5.22683e-05
5.22683e-05
5.23657e-05
5.23657e-05
5.24633e-05
5.24632e-05
5.25609e-05
5.25608e-05
5.26585e-05
5.26585e-05
5.27563e-05
5.27563e-05
5.28542e-05
5.28542e-05
5.29522e-05
5.29521e-05
5.30502e-05
5.30502e-05
5.31484e-05
5.31483e-05
5.32466e-05
5.32466e-05
5.3345e-05
5.33449e-05
5.34434e-05
5.34433e-05
5.35419e-05
5.35418e-05
5.36405e-05
5.36405e-05
5.37392e-05
5.37391e-05
5.3838e-05
5.38379e-05
5.39369e-05
5.39368e-05
5.40358e-05
5.40358e-05
5.41349e-05
5.41349e-05
5.4234e-05
5.4234e-05
5.43333e-05
5.43333e-05
5.44326e-05
5.44326e-05
5.45321e-05
5.4532e-05
5.46316e-05
5.46315e-05
5.47312e-05
5.47311e-05
5.48309e-05
5.48308e-05
5.49307e-05
5.49306e-05
5.50306e-05
5.50305e-05
5.51305e-05
5.51305e-05
5.52306e-05
5.52306e-05
5.53308e-05
5.53307e-05
5.5431e-05
5.5431e-05
5.55314e-05
5.55313e-05
5.56318e-05
5.56318e-05
5.57323e-05
5.57323e-05
5.58329e-05
5.58329e-05
5.59336e-05
5.59336e-05
5.60344e-05
5.60344e-05
5.61353e-05
5.61353e-05
5.62363e-05
5.62363e-05
5.63374e-05
5.63373e-05
5.64386e-05
5.64385e-05
5.65398e-05
5.65398e-05
5.66412e-05
5.66411e-05
5.67426e-05
5.67426e-05
5.68441e-05
5.68441e-05
5.69457e-05
5.69457e-05
5.70475e-05
5.70474e-05
5.71493e-05
5.71492e-05
5.72512e-05
5.72511e-05
5.73531e-05
5.73531e-05
5.74552e-05
5.74552e-05
5.75574e-05
5.75574e-05
5.76597e-05
5.76596e-05
5.7762e-05
5.7762e-05
5.78645e-05
5.78644e-05
5.7967e-05
5.79669e-05
5.80696e-05
5.80696e-05
5.81723e-05
5.81723e-05
5.82751e-05
5.82751e-05
5.8378e-05
5.8378e-05
5.8481e-05
5.8481e-05
5.85841e-05
5.85841e-05
5.86873e-05
5.86872e-05
5.87906e-05
5.87905e-05
5.88939e-05
5.88939e-05
5.89974e-05
5.89973e-05
5.91009e-05
5.91009e-05
5.92045e-05
5.92045e-05
5.93083e-05
5.93082e-05
5.94121e-05
5.9412e-05
5.9516e-05
5.95159e-05
5.962e-05
5.96199e-05
5.97241e-05
5.9724e-05
5.98282e-05
5.98282e-05
5.99325e-05
5.99325e-05
6.00369e-05
6.00368e-05
6.01413e-05
6.01413e-05
6.02459e-05
6.02458e-05
6.03505e-05
6.03505e-05
6.04552e-05
6.04552e-05
6.05601e-05
6.056e-05
6.0665e-05
6.06649e-05
6.077e-05
6.07699e-05
6.08751e-05
6.0875e-05
6.09802e-05
6.09802e-05
6.10855e-05
6.10855e-05
6.11909e-05
6.11908e-05
6.12963e-05
6.12963e-05
6.14019e-05
6.14019e-05
6.15075e-05
6.15075e-05
6.16133e-05
6.16132e-05
6.17191e-05
6.17191e-05
6.1825e-05
6.1825e-05
6.1931e-05
6.1931e-05
6.20371e-05
6.20371e-05
6.21433e-05
6.21433e-05
6.22496e-05
6.22495e-05
6.2356e-05
6.23559e-05
6.24624e-05
6.24624e-05
6.2569e-05
6.25689e-05
6.26756e-05
6.26756e-05
6.27824e-05
6.27823e-05
6.28892e-05
6.28892e-05
6.29961e-05
6.29961e-05
6.31031e-05
6.31031e-05
6.32102e-05
6.32102e-05
6.33174e-05
6.33174e-05
6.34247e-05
6.34247e-05
6.35321e-05
6.3532e-05
6.36396e-05
6.36395e-05
6.37471e-05
6.37471e-05
6.38548e-05
6.38547e-05
6.39625e-05
6.39625e-05
6.40703e-05
6.40703e-05
6.41783e-05
6.41782e-05
6.42863e-05
6.42862e-05
6.43944e-05
6.43944e-05
6.45026e-05
6.45026e-05
6.46109e-05
6.46108e-05
6.47193e-05
6.47192e-05
6.48277e-05
6.48277e-05
6.49363e-05
6.49363e-05
6.5045e-05
6.50449e-05
6.51537e-05
6.51537e-05
6.52626e-05
6.52625e-05
6.53715e-05
6.53714e-05
6.54805e-05
6.54805e-05
6.55896e-05
6.55896e-05
6.56988e-05
6.56988e-05
6.58081e-05
6.58081e-05
6.59175e-05
6.59175e-05
6.6027e-05
6.60269e-05
6.61366e-05
6.61365e-05
6.62462e-05
6.62462e-05
6.6356e-05
6.63559e-05
6.64658e-05
6.64658e-05
6.65758e-05
6.65757e-05
6.66858e-05
6.66857e-05
6.67959e-05
6.67959e-05
6.69061e-05
6.69061e-05
6.70164e-05
6.70164e-05
6.71268e-05
6.71268e-05
6.72373e-05
6.72372e-05
6.73479e-05
6.73478e-05
6.74585e-05
6.74585e-05
6.75693e-05
6.75693e-05
6.76801e-05
6.76801e-05
6.77911e-05
6.7791e-05
6.79021e-05
6.79021e-05
6.80132e-05
6.80132e-05
6.81245e-05
6.81244e-05
6.82358e-05
6.82357e-05
6.83472e-05
6.83471e-05
6.84586e-05
6.84586e-05
6.85702e-05
6.85702e-05
6.86819e-05
6.86819e-05
6.87937e-05