/*--------------------------------*- C++ -*----------------------------------*\
| =========                 |                                                 |
| \\      /  F ield         | OpenFOAM: The Open Source CFD Toolbox           |
|  \\    /   O peration     | Version:  2206                                  |
|   \\  /    A nd           | Website:  www.openfoam.com                      |
|    \\/     M anipulation  |                                                 |
\*---------------------------------------------------------------------------*/
FoamFile
{
    version     2.0;
    format      ascii;
    arch        "LSB;label=32;scalar=64";
    class       surfaceScalarField;
    location    "24";
    object      phi;
}
// * * * * * * * * * * * * * * * * * * * * * * * * * * * * * * * * * * * * * //

dimensions      [0 3 -1 0 0 0 0];

oriented        oriented;

internalField   nonuniform List<scalar> 
104998
(
-3.73948e-25
-1.40348e-24
-3.73697e-25
1.71505e-25
-1.57508e-24
-2.05544e-25
2.87137e-26
-1.60888e-24
-1.75145e-25
-6.36264e-26
-1.54163e-24
-2.41663e-25
-5.74195e-26
-1.489e-24
-2.96548e-25
-2.51774e-26
-1.45914e-24
-3.23947e-25
-9.78359e-27
-1.45343e-24
-3.31392e-25
3.10897e-29
-1.44936e-24
-3.32916e-25
1.52607e-27
-1.45388e-24
-3.29436e-25
4.60374e-27
-1.4552e-24
-3.26222e-25
3.48217e-27
-1.46183e-24
-3.22148e-25
3.86937e-27
-1.46416e-24
-3.18309e-25
2.66332e-27
-1.46637e-24
-3.13893e-25
2.89016e-27
-1.46597e-24
-3.09248e-25
3.46945e-27
-1.46691e-24
-3.05051e-25
4.09073e-27
-1.47019e-24
-3.00568e-25
4.8e-27
-1.47442e-24
-2.95667e-25
5.08597e-27
-1.47926e-24
-2.90214e-25
5.31096e-27
-1.48378e-24
-2.84507e-25
5.29089e-27
-1.48826e-24
-2.78526e-25
5.38481e-27
-1.49234e-24
-2.72473e-25
5.36794e-27
-1.49653e-24
-2.66257e-25
5.49908e-27
-1.50055e-24
-2.60008e-25
5.54113e-27
-1.50482e-24
-2.53612e-25
5.71443e-27
-1.50909e-24
-2.47168e-25
5.80089e-27
-1.51368e-24
-2.40561e-25
6.00134e-27
-1.51833e-24
-2.33878e-25
6.11787e-27
-1.52333e-24
-2.27016e-25
6.33453e-27
-1.52841e-24
-2.2005e-25
6.47171e-27
-1.53385e-24
-2.12888e-25
6.69866e-27
-1.53939e-24
-2.05603e-25
6.85079e-27
-1.54528e-24
-1.98112e-25
7.08361e-27
-1.55129e-24
-1.90482e-25
7.24651e-27
-1.55764e-24
-1.8264e-25
7.48316e-27
-1.56413e-24
-1.74647e-25
7.65433e-27
-1.57095e-24
-1.66439e-25
7.89292e-27
-1.57791e-24
-1.58071e-25
8.0703e-27
-1.58521e-24
-1.49484e-25
8.3091e-27
-1.59265e-24
-1.40732e-25
8.49012e-27
-1.60042e-24
-1.31762e-25
8.73003e-27
-1.60834e-24
-1.22619e-25
8.91724e-27
-1.61659e-24
-1.13255e-25
9.15915e-27
-1.625e-24
-1.03712e-25
9.35046e-27
-1.63372e-24
-9.39458e-26
9.59178e-27
-1.64262e-24
-8.39973e-26
9.78539e-27
-1.65183e-24
-7.38255e-26
1.00267e-26
-1.6612e-24
-6.34677e-26
1.02229e-26
-1.67089e-24
-5.28858e-26
1.04641e-26
-1.68075e-24
-4.21147e-26
1.06624e-26
-1.69092e-24
-3.11189e-26
1.09034e-26
-1.70126e-24
-1.99311e-26
1.11036e-26
-1.71191e-24
-8.51804e-27
1.13443e-26
-1.72273e-24
3.08967e-27
1.1546e-26
-1.73386e-24
1.4923e-26
1.17864e-26
-1.74516e-24
2.69531e-26
1.19896e-26
-1.75676e-24
3.92091e-26
1.22296e-26
-1.76854e-24
5.1664e-26
1.24339e-26
-1.78061e-24
6.43451e-26
1.26736e-26
-1.79287e-24
7.72269e-26
1.28789e-26
-1.80542e-24
9.03351e-26
1.31182e-26
-1.81815e-24
1.03645e-25
1.33245e-26
-1.83117e-24
1.17183e-25
1.35634e-26
-1.84437e-24
1.30923e-25
1.37704e-26
-1.85786e-24
1.44891e-25
1.40089e-26
-1.87153e-24
1.59064e-25
1.42165e-26
-1.88549e-24
1.73463e-25
1.44547e-26
-1.89963e-24
1.88069e-25
1.4663e-26
-1.91406e-24
2.02902e-25
1.49006e-26
-1.92867e-24
2.17942e-25
1.51094e-26
-1.94356e-24
2.33209e-25
1.53468e-26
-1.95864e-24
2.48684e-25
1.5556e-26
-1.97399e-24
2.64387e-25
1.57931e-26
-1.98954e-24
2.80298e-25
1.60026e-26
-2.00536e-24
2.96437e-25
1.62393e-26
-2.02136e-24
3.12785e-25
1.64493e-26
-2.03764e-24
3.29361e-25
1.66857e-26
-2.05411e-24
3.46147e-25
1.68959e-26
-2.07085e-24
3.63161e-25
1.7132e-26
-2.08778e-24
3.80385e-25
1.73425e-26
-2.10498e-24
3.97837e-25
1.75783e-26
-2.12237e-24
4.155e-25
1.77891e-26
-2.14003e-24
4.33392e-25
1.80246e-26
-2.15788e-24
4.51494e-25
1.82355e-26
-2.17599e-24
4.69825e-25
1.84706e-26
-2.1943e-24
4.88367e-25
1.86819e-26
-2.21287e-24
5.07138e-25
1.89167e-26
-2.23163e-24
5.26121e-25
1.9128e-26
-2.25066e-24
5.45332e-25
1.93626e-26
-2.26988e-24
5.64755e-25
1.95741e-26
-2.28936e-24
5.84407e-25
1.98085e-26
-2.30904e-24
6.04272e-25
2.00202e-26
-2.32897e-24
6.24365e-25
2.02544e-26
-2.3491e-24
6.44671e-25
2.04662e-26
-2.36949e-24
6.65206e-25
2.07001e-26
-2.39007e-24
6.85953e-25
2.09119e-26
-2.41091e-24
7.0693e-25
2.11456e-26
-2.43194e-24
7.28119e-25
2.13576e-26
-2.45324e-24
7.49538e-25
2.15912e-26
-2.47472e-24
7.71169e-25
2.18033e-26
-2.49646e-24
7.9303e-25
2.20366e-26
-2.5184e-24
8.15104e-25
2.22488e-26
-2.54059e-24
8.37407e-25
2.24818e-26
-2.56298e-24
8.59923e-25
2.26941e-26
-2.58562e-24
8.82668e-25
2.2927e-26
-2.60846e-24
9.05627e-25
2.31393e-26
-2.63155e-24
9.28815e-25
2.33719e-26
-2.65484e-24
9.52217e-25
2.35844e-26
-2.67838e-24
9.75847e-25
2.38168e-26
-2.70212e-24
9.99691e-25
2.40293e-26
-2.72611e-24
1.02376e-24
2.42616e-26
-2.75029e-24
1.04805e-24
2.44743e-26
-2.77473e-24
1.07257e-24
2.47064e-26
-2.79936e-24
1.0973e-24
2.4919e-26
-2.82425e-24
1.12226e-24
2.51508e-26
-2.84933e-24
1.14743e-24
2.53636e-26
-2.87466e-24
1.17283e-24
2.55954e-26
-2.90019e-24
1.19845e-24
2.58082e-26
-2.92597e-24
1.22429e-24
2.60398e-26
-2.95194e-24
1.25035e-24
2.62527e-26
-2.97817e-24
1.27664e-24
2.6484e-26
-3.00459e-24
1.30314e-24
2.66969e-26
-3.03126e-24
1.32987e-24
2.69282e-26
-3.05812e-24
1.35682e-24
2.71411e-26
-3.08524e-24
1.38399e-24
2.73722e-26
-3.11255e-24
1.41138e-24
2.75853e-26
-3.14012e-24
1.439e-24
2.78162e-26
-3.16787e-24
1.46683e-24
2.80292e-26
-3.19588e-24
1.49489e-24
2.826e-26
-3.22409e-24
1.52317e-24
2.84731e-26
-3.25254e-24
1.55167e-24
2.87038e-26
-3.28119e-24
1.58039e-24
2.89171e-26
-3.31008e-24
1.60934e-24
2.91475e-26
-3.33918e-24
1.6385e-24
2.93607e-26
-3.36852e-24
1.66789e-24
2.95912e-26
-3.39806e-24
1.6975e-24
2.98045e-26
-3.42784e-24
1.72733e-24
3.00346e-26
-3.45783e-24
1.75738e-24
3.0248e-26
-3.48806e-24
1.78765e-24
3.04781e-26
-3.51849e-24
1.81814e-24
3.06915e-26
-3.54916e-24
1.84886e-24
3.09214e-26
-3.58003e-24
1.8798e-24
3.1135e-26
-3.61115e-24
1.91096e-24
3.1365e-26
-3.64247e-24
1.94234e-24
3.15784e-26
-3.67403e-24
1.97394e-24
3.18082e-26
-3.70579e-24
2.00576e-24
3.20217e-26
-3.73779e-24
2.03781e-24
3.22513e-26
-3.76999e-24
2.07008e-24
3.24649e-26
-3.80244e-24
2.10257e-24
3.26944e-26
-3.83509e-24
2.13527e-24
3.29082e-26
-3.86798e-24
2.16821e-24
3.31376e-26
-3.90107e-24
2.20136e-24
3.33513e-26
-3.9344e-24
2.23474e-24
3.35804e-26
-3.96794e-24
2.26833e-24
3.37941e-26
-4.00172e-24
2.30215e-24
3.40233e-26
-4.03569e-24
2.33618e-24
3.42372e-26
-4.06991e-24
2.37045e-24
3.44661e-26
-4.10433e-24
2.40492e-24
3.46801e-26
-4.139e-24
2.43963e-24
3.4909e-26
-4.17386e-24
2.47455e-24
3.51229e-26
-4.20897e-24
2.5097e-24
3.53517e-26
-4.24427e-24
2.54506e-24
3.55658e-26
-4.27982e-24
2.58066e-24
3.57945e-26
-4.31557e-24
2.61646e-24
3.60087e-26
-4.35156e-24
2.6525e-24
3.62371e-26
-4.38775e-24
2.68875e-24
3.64513e-26
-4.42419e-24
2.72522e-24
3.66798e-26
-4.46082e-24
2.76192e-24
3.68939e-26
-4.4977e-24
2.79884e-24
3.71223e-26
-4.53477e-24
2.83597e-24
3.73365e-26
-4.57209e-24
2.87333e-24
3.75649e-26
-4.60961e-24
2.91091e-24
3.77795e-26
-4.64737e-24
2.94872e-24
3.80075e-26
-4.68533e-24
2.98674e-24
3.82218e-26
-4.72354e-24
3.02498e-24
3.84499e-26
-4.76194e-24
3.06345e-24
3.86644e-26
-4.80059e-24
3.10214e-24
3.88924e-26
-4.83943e-24
3.14104e-24
3.91069e-26
-4.87852e-24
3.18017e-24
3.93348e-26
-4.91781e-24
3.21952e-24
3.95494e-26
-4.95734e-24
3.2591e-24
3.97771e-26
-4.99707e-24
3.29889e-24
3.99917e-26
-5.03705e-24
3.33891e-24
4.02194e-26
-5.07722e-24
3.37914e-24
4.04342e-26
-5.11763e-24
3.4196e-24
4.06618e-26
-5.15825e-24
3.46027e-24
4.08765e-26
-5.19911e-24
3.50118e-24
4.11042e-26
-5.24016e-24
3.5423e-24
4.13188e-26
-5.28146e-24
3.58364e-24
4.15463e-26
-5.32296e-24
3.6252e-24
4.17609e-26
-5.3647e-24
3.66699e-24
4.19884e-26
-5.40665e-24
3.70899e-24
4.22032e-26
-5.44883e-24
3.75122e-24
4.24306e-26
-5.49121e-24
3.79366e-24
4.26456e-26
-5.53384e-24
3.83634e-24
4.28729e-26
-5.57666e-24
3.87922e-24
4.3088e-26
-5.61973e-24
3.92234e-24
4.33152e-26
-5.663e-24
3.96567e-24
4.35302e-26
-5.70651e-24
4.00922e-24
4.37572e-26
-5.75022e-24
4.053e-24
4.39723e-26
-5.79417e-24
4.09699e-24
4.41992e-26
-5.83832e-24
4.14121e-24
4.44142e-26
-5.88271e-24
4.18565e-24
4.46412e-26
-5.92731e-24
4.23031e-24
4.48563e-26
-5.97214e-24
4.27519e-24
4.50832e-26
-6.01718e-24
4.32029e-24
4.52984e-26
-6.06245e-24
4.36562e-24
4.55255e-26
-6.10793e-24
4.41116e-24
4.57407e-26
-6.15365e-24
4.45692e-24
4.59674e-26
-6.19957e-24
4.50291e-24
4.61828e-26
-6.24573e-24
4.54912e-24
4.64095e-26
-6.29209e-24
4.59554e-24
4.66247e-26
-6.33869e-24
4.64219e-24
4.68513e-26
-6.3855e-24
4.68906e-24
4.70666e-26
-6.43254e-24
4.73616e-24
4.72933e-26
-6.47978e-24
4.78347e-24
4.7509e-26
-6.52727e-24
4.831e-24
4.77356e-26
-6.57496e-24
4.87875e-24
4.7951e-26
-6.62288e-24
4.92673e-24
4.81773e-26
-6.67101e-24
4.97492e-24
4.83928e-26
-6.71938e-24
5.02334e-24
4.86192e-26
-6.76795e-24
5.07198e-24
4.88349e-26
-6.81676e-24
5.12084e-24
4.90612e-26
-6.86577e-24
5.16992e-24
4.92767e-26
-6.91502e-24
5.21922e-24
4.95031e-26
-6.96448e-24
5.26875e-24
4.97185e-26
-7.01417e-24
5.31849e-24
4.99447e-26
-7.06407e-24
5.36845e-24
5.01607e-26
-7.1142e-24
5.41864e-24
5.03867e-26
-7.16454e-24
5.46905e-24
5.06026e-26
-7.21512e-24
5.51968e-24
5.08285e-26
-7.2659e-24
5.57052e-24
5.10444e-26
-7.31692e-24
5.62159e-24
5.12705e-26
-7.36814e-24
5.67288e-24
5.14861e-26
-7.4196e-24
5.7244e-24
5.17123e-26
-7.47126e-24
5.77613e-24
5.19283e-26
-7.52316e-24
5.82808e-24
5.21545e-26
-7.57527e-24
5.88026e-24
5.23704e-26
-7.62761e-24
5.93265e-24
5.25959e-26
-7.68016e-24
5.98527e-24
5.28117e-26
-7.73294e-24
6.03811e-24
5.30377e-26
-7.78594e-24
6.09116e-24
5.3254e-26
-7.83916e-24
6.14444e-24
5.34797e-26
-7.89259e-24
6.19794e-24
5.36957e-26
-7.94626e-24
6.25167e-24
5.39215e-26
-8.00013e-24
6.30561e-24
5.41377e-26
-8.05424e-24
6.35977e-24
5.43632e-26
-8.10856e-24
6.41415e-24
5.45793e-26
-8.16311e-24
6.46876e-24
5.48047e-26
-8.21786e-24
6.52359e-24
5.50213e-26
-8.27285e-24
6.57863e-24
5.52467e-26
-8.32805e-24
6.6339e-24
5.54629e-26
-8.38349e-24
6.68939e-24
5.56886e-26
-8.43913e-24
6.7451e-24
5.59046e-26
-8.495e-24
6.80103e-24
5.61304e-26
-8.55108e-24
6.85718e-24
5.63466e-26
-8.6074e-24
6.91356e-24
5.6572e-26
-8.66392e-24
6.97015e-24
5.67884e-26
-8.72068e-24
7.02696e-24
5.70137e-26
-8.77765e-24
7.084e-24
5.72299e-26
-8.83485e-24
7.14125e-24
5.74551e-26
-8.89225e-24
7.19873e-24
5.76715e-26
-8.9499e-24
7.25643e-24
5.78972e-26
-9.00774e-24
7.31434e-24
5.81138e-26
-9.06583e-24
7.37249e-24
5.83387e-26
-9.12412e-24
7.43084e-24
5.85551e-26
-9.18264e-24
7.48943e-24
5.87803e-26
-9.24137e-24
7.54823e-24
5.89967e-26
-9.30034e-24
7.60725e-24
5.92221e-26
-9.35951e-24
7.66649e-24
5.94386e-26
-9.41892e-24
7.72596e-24
5.96635e-26
-9.47854e-24
7.78565e-24
5.98803e-26
-9.53839e-24
7.84555e-24
6.01053e-26
-9.59844e-24
7.90568e-24
6.03219e-26
-9.65873e-24
7.96603e-24
6.05471e-26
-9.71923e-24
8.0266e-24
6.07638e-26
-9.77996e-24
8.08739e-24
6.09888e-26
-9.8409e-24
8.1484e-24
6.12054e-26
-9.90208e-24
8.20963e-24
6.14305e-26
-9.96346e-24
8.27108e-24
6.16475e-26
-1.00251e-23
8.33276e-24
6.18722e-26
-1.00869e-23
8.39465e-24
6.2089e-26
-1.0149e-23
8.45677e-24
6.23137e-26
-1.02112e-23
8.5191e-24
6.25307e-26
-1.02737e-23
8.58166e-24
6.27552e-26
-1.03364e-23
8.64444e-24
6.29723e-26
-1.03994e-23
8.70744e-24
6.31972e-26
-1.04625e-23
8.77065e-24
6.34137e-26
-1.05259e-23
8.83409e-24
6.36384e-26
-1.05895e-23
8.89775e-24
6.38554e-26
-1.06533e-23
8.96164e-24
6.40801e-26
-1.07173e-23
9.02574e-24
6.4297e-26
-1.07816e-23
9.09006e-24
6.45215e-26
-1.08461e-23
9.15461e-24
6.47386e-26
-1.09108e-23
9.21937e-24
6.49631e-26
-1.09757e-23
9.28436e-24
6.51801e-26
-1.10409e-23
9.34956e-24
6.54046e-26
-1.11062e-23
9.41499e-24
6.56219e-26
-1.11718e-23
9.48064e-24
6.58464e-26
-1.12376e-23
9.54651e-24
6.60634e-26
-1.13036e-23
9.6126e-24
6.62879e-26
-1.13699e-23
9.67891e-24
6.65054e-26
-1.14363e-23
9.74544e-24
6.67298e-26
-1.1503e-23
9.81219e-24
6.69472e-26
-1.15699e-23
9.87917e-24
6.71716e-26
-1.16371e-23
9.94636e-24
6.73888e-26
-1.17044e-23
1.00138e-23
6.76129e-26
-1.1772e-23
1.00814e-23
6.783e-26
-1.18398e-23
1.01493e-23
6.80545e-26
-1.19078e-23
1.02173e-23
6.82716e-26
-1.1976e-23
1.02856e-23
6.84959e-26
-1.20445e-23
1.03542e-23
6.87133e-26
-1.21131e-23
1.04229e-23
6.89375e-26
-1.2182e-23
1.04919e-23
6.91548e-26
-1.22512e-23
1.0561e-23
6.9379e-26
-1.23205e-23
1.06304e-23
6.95964e-26
-1.23901e-23
1.07001e-23
6.98208e-26
-1.24598e-23
1.07699e-23
7.00382e-26
-1.25298e-23
1.084e-23
7.02623e-26
-1.26e-23
1.09103e-23
7.04797e-26
-1.26705e-23
1.09808e-23
7.07039e-26
-1.27411e-23
1.10515e-23
7.09213e-26
-1.2812e-23
1.11224e-23
7.11454e-26
-1.28831e-23
1.11936e-23
7.13629e-26
-1.29545e-23
1.1265e-23
7.15871e-26
-1.3026e-23
1.13366e-23
7.18046e-26
-1.30978e-23
1.14084e-23
7.20286e-26
-1.31698e-23
1.14805e-23
7.22462e-26
-1.3242e-23
1.15528e-23
7.247e-26
-1.33144e-23
1.16253e-23
7.26876e-26
-1.3387e-23
1.1698e-23
7.29116e-26
-1.34599e-23
1.17709e-23
7.31292e-26
-1.3533e-23
1.18441e-23
7.3353e-26
-1.36063e-23
1.19174e-23
7.35705e-26
-1.36798e-23
1.1991e-23
7.37945e-26
-1.37536e-23
1.20648e-23
7.40119e-26
-1.38276e-23
1.21389e-23
7.42357e-26
-1.39018e-23
1.22131e-23
7.44535e-26
-1.39762e-23
1.22876e-23
7.46776e-26
-1.40508e-23
1.23623e-23
7.48954e-26
-1.41257e-23
1.24372e-23
7.51191e-26
-1.42007e-23
1.25124e-23
7.53368e-26
-1.4276e-23
1.25878e-23
7.55606e-26
-1.43516e-23
1.26633e-23
7.57784e-26
-1.44273e-23
1.27391e-23
7.60019e-26
-1.45033e-23
1.28152e-23
7.62199e-26
-1.45794e-23
1.28914e-23
7.64435e-26
-1.46558e-23
1.29679e-23
7.66612e-26
-1.47325e-23
1.30446e-23
7.6885e-26
-1.48093e-23
1.31215e-23
7.71028e-26
-1.48864e-23
1.31986e-23
7.73267e-26
-1.49637e-23
1.32759e-23
7.75448e-26
-1.50412e-23
1.33535e-23
7.77683e-26
-1.51189e-23
1.34313e-23
7.79858e-26
-1.51968e-23
1.35093e-23
7.82095e-26
-1.5275e-23
1.35876e-23
7.84278e-26
-1.53534e-23
1.3666e-23
7.86514e-26
-1.5432e-23
1.37447e-23
7.88692e-26
-1.55108e-23
1.38236e-23
7.90928e-26
-1.55899e-23
1.39027e-23
7.93107e-26
-1.56692e-23
1.3982e-23
7.95344e-26
-1.57487e-23
1.40616e-23
7.97527e-26
-1.58284e-23
1.41414e-23
7.99759e-26
-1.59083e-23
1.42214e-23
8.01937e-26
-1.59885e-23
1.43016e-23
8.04169e-26
-1.60688e-23
1.4382e-23
8.06349e-26
-1.61494e-23
1.44627e-23
8.08584e-26
-1.62302e-23
1.45436e-23
8.10766e-26
-1.63113e-23
1.46247e-23
8.13004e-26
-1.63925e-23
1.4706e-23
8.15182e-26
-1.6474e-23
1.47875e-23
8.17415e-26
-1.65557e-23
1.48693e-23
8.19596e-26
-1.66376e-23
1.49513e-23
8.21831e-26
-1.67198e-23
1.50335e-23
8.24013e-26
-1.68021e-23
1.51159e-23
8.26248e-26
-1.68847e-23
1.51986e-23
8.28425e-26
-1.69675e-23
1.52814e-23
8.30658e-26
-1.70506e-23
1.53645e-23
8.32838e-26
-1.71338e-23
1.54478e-23
8.35071e-26
-1.72173e-23
1.55314e-23
8.37254e-26
-1.7301e-23
1.56151e-23
8.39488e-26
-1.73849e-23
1.56991e-23
8.41668e-26
-1.7469e-23
1.57833e-23
8.43902e-26
-1.75533e-23
1.58677e-23
8.46086e-26
-1.76379e-23
1.59523e-23
8.48321e-26
-1.77227e-23
1.60372e-23
8.50507e-26
-1.78077e-23
1.61223e-23
8.52736e-26
-1.78929e-23
1.62075e-23
8.54916e-26
-1.79784e-23
1.62931e-23
8.57146e-26
-1.80641e-23
1.63788e-23
8.59329e-26
-1.815e-23
1.64648e-23
8.61563e-26
-1.82361e-23
1.65509e-23
8.63747e-26
-1.83224e-23
1.66373e-23
8.65977e-26
-1.8409e-23
1.6724e-23
8.68158e-26
-1.84958e-23
1.68108e-23
8.70388e-26
-1.85827e-23
1.68979e-23
8.72571e-26
-1.867e-23
1.69851e-23
8.74804e-26
-1.87574e-23
1.70726e-23
8.76989e-26
-1.88451e-23
1.71604e-23
8.79221e-26
-1.89329e-23
1.72483e-23
8.81402e-26
-1.90211e-23
1.73365e-23
8.83635e-26
-1.91094e-23
1.74249e-23
8.85817e-26
-1.91979e-23
1.75135e-23
8.88046e-26
-1.92867e-23
1.76023e-23
8.90232e-26
-1.93757e-23
1.76914e-23
8.92463e-26
-1.94649e-23
1.77806e-23
8.94646e-26
-1.95543e-23
1.78701e-23
8.96876e-26
-1.96439e-23
1.79598e-23
8.99059e-26
-1.97338e-23
1.80498e-23
9.01287e-26
-1.98239e-23
1.81399e-23
9.03476e-26
-1.99142e-23
1.82303e-23
9.05705e-26
-2.00047e-23
1.83209e-23
9.07892e-26
-2.00955e-23
1.84117e-23
9.10119e-26
-2.01865e-23
1.85027e-23
9.12301e-26
-2.02777e-23
1.8594e-23
9.14528e-26
-2.03691e-23
1.86855e-23
9.16714e-26
-2.04607e-23
1.87772e-23
9.18948e-26
-2.05526e-23
1.88691e-23
9.21135e-26
-2.06446e-23
1.89612e-23
9.23365e-26
-2.07369e-23
1.90536e-23
9.25549e-26
-2.08294e-23
1.91461e-23
9.27779e-26
-2.09222e-23
1.92389e-23
9.29962e-26
-2.10151e-23
1.9332e-23
9.32187e-26
-2.11083e-23
1.94252e-23
9.34373e-26
-2.12017e-23
1.95187e-23
9.36604e-26
-2.12953e-23
1.96124e-23
9.38792e-26
-2.13892e-23
1.97063e-23
9.4102e-26
-2.14832e-23
1.98004e-23
9.43203e-26
-2.15775e-23
1.98947e-23
9.45431e-26
-2.1672e-23
1.99893e-23
9.47617e-26
-2.17668e-23
2.00841e-23
9.49848e-26
-2.18617e-23
2.01791e-23
9.52037e-26
-2.19569e-23
2.02743e-23
9.54266e-26
-2.20522e-23
2.03698e-23
9.56448e-26
-2.21479e-23
2.04654e-23
9.58675e-26
-2.22437e-23
2.05613e-23
9.60862e-26
-2.23397e-23
2.06574e-23
9.63088e-26
-2.2436e-23
2.07538e-23
9.65272e-26
-2.25325e-23
2.08503e-23
9.67506e-26
-2.26292e-23
2.09471e-23
9.6969e-26
-2.27261e-23
2.10441e-23
9.71922e-26
-2.28233e-23
2.11413e-23
9.74109e-26
-2.29207e-23
2.12387e-23
9.76337e-26
-2.30182e-23
2.13364e-23
9.78523e-26
-2.31161e-23
2.14343e-23
9.80753e-26
-2.32141e-23
2.15324e-23
9.82935e-26
-2.33124e-23
2.16307e-23
9.85161e-26
-2.34108e-23
2.17292e-23
9.87342e-26
-2.35095e-23
2.1828e-23
9.89572e-26
-2.36084e-23
2.1927e-23
9.91763e-26
-2.37076e-23
2.20262e-23
9.93992e-26
-2.38069e-23
2.21256e-23
9.96177e-26
-2.39065e-23
2.22252e-23
9.98407e-26
-2.40063e-23
2.23251e-23
1.00059e-25
-2.41063e-23
2.24252e-23
1.00282e-25
-2.42066e-23
2.25255e-23
1.00501e-25
-2.43071e-23
2.2626e-23
1.00724e-25
-2.44077e-23
2.27268e-23
1.00943e-25
-2.45086e-23
2.28277e-23
1.01165e-25
-2.46098e-23
2.29289e-23
1.01383e-25
-2.47111e-23
2.30303e-23
1.01606e-25
-2.48127e-23
2.3132e-23
1.01825e-25
-2.49145e-23
2.32338e-23
1.02048e-25
-2.50165e-23
2.33359e-23
1.02266e-25
-2.51187e-23
2.34382e-23
1.02489e-25
-2.52211e-23
2.35407e-23
1.02708e-25
-2.53238e-23
2.36434e-23
1.02931e-25
-2.54267e-23
2.37464e-23
1.03149e-25
-2.55298e-23
2.38495e-23
1.03372e-25
-2.56332e-23
2.39529e-23
1.0359e-25
-2.57367e-23
2.40565e-23
1.03813e-25
-2.58405e-23
2.41604e-23
1.04033e-25
-2.59445e-23
2.42644e-23
1.04255e-25
-2.60487e-23
2.43687e-23
1.04474e-25
-2.61531e-23
2.44732e-23
1.04696e-25
-2.62578e-23
2.45779e-23
1.04915e-25
-2.63627e-23
2.46829e-23
1.05138e-25
-2.64678e-23
2.4788e-23
1.05357e-25
-2.65731e-23
2.48934e-23
1.05579e-25
-2.66786e-23
2.4999e-23
1.05798e-25
-2.67844e-23
2.51048e-23
1.06021e-25
-2.68904e-23
2.52109e-23
1.06239e-25
-2.69966e-23
2.53171e-23
1.06462e-25
-2.7103e-23
2.54236e-23
1.06681e-25
-2.72096e-23
2.55303e-23
1.06903e-25
-2.73165e-23
2.56373e-23
1.07121e-25
-2.74236e-23
2.57444e-23
1.07345e-25
-2.75309e-23
2.58518e-23
1.07564e-25
-2.76384e-23
2.59594e-23
1.07787e-25
-2.77462e-23
2.60672e-23
1.08005e-25
-2.78541e-23
2.61752e-23
1.08227e-25
-2.79623e-23
2.62834e-23
1.08446e-25
-2.80707e-23
2.63919e-23
1.08669e-25
-2.81794e-23
2.65006e-23
1.08887e-25
-2.82882e-23
2.66095e-23
1.0911e-25
-2.83973e-23
2.67186e-23
1.09329e-25
-2.85066e-23
2.6828e-23
1.09552e-25
-2.86161e-23
2.69376e-23
1.09771e-25
-2.87258e-23
2.70474e-23
1.09993e-25
-2.88358e-23
2.71574e-23
1.10212e-25
-2.89459e-23
2.72676e-23
1.10435e-25
-2.90563e-23
2.73781e-23
1.10653e-25
-2.9167e-23
2.74888e-23
1.10876e-25
-2.92778e-23
2.75997e-23
1.11095e-25
-2.93888e-23
2.77108e-23
1.11317e-25
-2.95001e-23
2.78221e-23
1.11537e-25
-2.96116e-23
2.79337e-23
1.11759e-25
-2.97233e-23
2.80455e-23
1.11978e-25
-2.98353e-23
2.81575e-23
1.122e-25
-2.99474e-23
2.82697e-23
1.12419e-25
-3.00598e-23
2.83821e-23
1.12642e-25
-3.01724e-23
2.84948e-23
1.1286e-25
-3.02853e-23
2.86077e-23
1.13083e-25
-3.03983e-23
2.87208e-23
1.13302e-25
-3.05116e-23
2.88341e-23
1.13524e-25
-3.0625e-23
2.89476e-23
1.13743e-25
-3.07388e-23
2.90614e-23
1.13965e-25
-3.08527e-23
2.91754e-23
1.14185e-25
-3.09668e-23
2.92896e-23
1.14407e-25
-3.10812e-23
2.9404e-23
1.14626e-25
-3.11958e-23
2.95187e-23
1.14848e-25
-3.13106e-23
2.96336e-23
1.15067e-25
-3.14256e-23
2.97487e-23
1.1529e-25
-3.15409e-23
2.9864e-23
1.15509e-25
-3.16563e-23
2.99795e-23
1.15731e-25
-3.1772e-23
3.00953e-23
1.1595e-25
-3.18879e-23
3.02112e-23
1.16173e-25
-3.20041e-23
3.03274e-23
1.16392e-25
-3.21204e-23
3.04438e-23
1.16614e-25
-3.2237e-23
3.05605e-23
1.16833e-25
-3.23538e-23
3.06773e-23
1.17055e-25
-3.24708e-23
3.07944e-23
1.17275e-25
-3.25881e-23
3.09117e-23
1.17497e-25
-3.27055e-23
3.10292e-23
1.17716e-25
-3.28232e-23
3.1147e-23
1.17938e-25
-3.29411e-23
3.12649e-23
1.18158e-25
-3.30592e-23
3.13831e-23
1.1838e-25
-3.31776e-23
3.15015e-23
1.18598e-25
-3.32961e-23
3.16201e-23
1.18821e-25
-3.34149e-23
3.1739e-23
1.1904e-25
-3.35339e-23
3.1858e-23
1.19262e-25
-3.36531e-23
3.19773e-23
1.19481e-25
-3.37726e-23
3.20968e-23
1.19703e-25
-3.38922e-23
3.22166e-23
1.19923e-25
-3.40121e-23
3.23365e-23
1.20145e-25
-3.41322e-23
3.24567e-23
1.20364e-25
-3.42526e-23
3.25771e-23
1.20587e-25
-3.43731e-23
3.26977e-23
1.20806e-25
-3.44939e-23
3.28185e-23
1.21028e-25
-3.46149e-23
3.29395e-23
1.21247e-25
-3.47361e-23
3.30608e-23
1.21469e-25
-3.48575e-23
3.31823e-23
1.21688e-25
-3.49792e-23
3.3304e-23
1.2191e-25
-3.5101e-23
3.34259e-23
1.2213e-25
-3.52231e-23
3.35481e-23
1.22352e-25
-3.53454e-23
3.36705e-23
1.22571e-25
-3.5468e-23
3.37931e-23
1.22793e-25
-3.55907e-23
3.39159e-23
1.23012e-25
-3.57137e-23
3.40389e-23
1.23235e-25
-3.58369e-23
3.41622e-23
1.23454e-25
-3.59603e-23
3.42857e-23
1.23676e-25
-3.60839e-23
3.44094e-23
1.23895e-25
-3.62078e-23
3.45333e-23
1.24117e-25
-3.63319e-23
3.46574e-23
1.24336e-25
-3.64562e-23
3.47818e-23
1.24559e-25
-3.65807e-23
3.49064e-23
1.24778e-25
-3.67054e-23
3.50312e-23
1.25e-25
-3.68304e-23
3.51562e-23
1.2522e-25
-3.69556e-23
3.52814e-23
1.25442e-25
-3.7081e-23
3.54069e-23
1.25661e-25
-3.72066e-23
3.55326e-23
1.25883e-25
-3.73325e-23
3.56585e-23
1.26102e-25
-3.74585e-23
3.57846e-23
1.26325e-25
-3.75848e-23
3.59109e-23
1.26544e-25
-3.77113e-23
3.60375e-23
1.26766e-25
-3.78381e-23
3.61643e-23
1.26985e-25
-3.7965e-23
3.62913e-23
1.27207e-25
-3.80922e-23
3.64185e-23
1.27426e-25
-3.82196e-23
3.6546e-23
1.27648e-25
-3.83472e-23
3.66737e-23
1.27867e-25
-3.8475e-23
3.68015e-23
1.2809e-25
-3.86031e-23
3.69297e-23
1.28309e-25
-3.87313e-23
3.7058e-23
1.28531e-25
-3.88598e-23
3.71865e-23
1.2875e-25
-3.89885e-23
3.73153e-23
1.28972e-25
-3.91175e-23
3.74443e-23
1.29192e-25
-3.92466e-23
3.75735e-23
1.29414e-25
-3.9376e-23
3.7703e-23
1.29633e-25
-3.95056e-23
3.78326e-23
1.29855e-25
-3.96354e-23
3.79625e-23
1.30074e-25
-3.97655e-23
3.80926e-23
1.30296e-25
-3.98957e-23
3.82229e-23
1.30515e-25
-4.00262e-23
3.83535e-23
1.30738e-25
-4.01569e-23
3.84842e-23
1.30957e-25
-4.02878e-23
3.86152e-23
1.31179e-25
-4.0419e-23
3.87464e-23
1.31399e-25
-4.05503e-23
3.88778e-23
1.3162e-25
-4.06819e-23
3.90095e-23
1.3184e-25
-4.08137e-23
3.91413e-23
1.32062e-25
-4.09457e-23
3.92734e-23
1.32281e-25
-4.1078e-23
3.94057e-23
1.32503e-25
-4.12104e-23
3.95382e-23
1.32722e-25
-4.13431e-23
3.9671e-23
1.32945e-25
-4.1476e-23
3.98039e-23
1.33164e-25
-4.16092e-23
3.99371e-23
1.33386e-25
-4.17425e-23
4.00705e-23
1.33606e-25
-4.18761e-23
4.02042e-23
1.33828e-25
-4.20099e-23
4.0338e-23
1.34047e-25
-4.21439e-23
4.04721e-23
1.34269e-25
-4.22781e-23
4.06064e-23
1.34488e-25
-4.24126e-23
4.07409e-23
1.3471e-25
-4.25472e-23
4.08756e-23
1.3493e-25
-4.26821e-23
4.10106e-23
1.35152e-25
-4.28172e-23
4.11457e-23
1.35371e-25
-4.29526e-23
4.12811e-23
1.35593e-25
-4.30881e-23
4.14168e-23
1.35812e-25
-4.32239e-23
4.15526e-23
1.36035e-25
-4.33599e-23
4.16886e-23
1.36254e-25
-4.34961e-23
4.18249e-23
1.36476e-25
-4.36326e-23
4.19614e-23
1.36695e-25
-4.37692e-23
4.20981e-23
1.36917e-25
-4.39061e-23
4.22351e-23
1.37137e-25
-4.40432e-23
4.23722e-23
1.37359e-25
-4.41805e-23
4.25096e-23
1.37578e-25
-4.43181e-23
4.26472e-23
1.378e-25
-4.44558e-23
4.2785e-23
1.38019e-25
-4.45938e-23
4.29231e-23
1.38241e-25
-4.4732e-23
4.30613e-23
1.3846e-25
-4.48704e-23
4.31998e-23
1.38682e-25
-4.50091e-23
4.33385e-23
1.38901e-25
-4.51479e-23
4.34775e-23
1.39123e-25
-4.5287e-23
4.36166e-23
1.39343e-25
-4.54263e-23
4.3756e-23
1.39566e-25
-4.55659e-23
4.38956e-23
1.39785e-25
-4.57056e-23
4.40354e-23
1.40007e-25
-4.58456e-23
4.41754e-23
1.40226e-25
-4.59858e-23
4.43156e-23
1.40448e-25
-4.61262e-23
4.44561e-23
1.40667e-25
-4.62668e-23
4.45968e-23
1.40889e-25
-4.64077e-23
4.47377e-23
1.41108e-25
-4.65487e-23
4.48788e-23
1.4133e-25
-4.669e-23
4.50202e-23
1.4155e-25
-4.68316e-23
4.51618e-23
1.41772e-25
-4.69733e-23
4.53036e-23
1.41991e-25
-4.71152e-23
4.54456e-23
1.42213e-25
-4.72574e-23
4.55878e-23
1.42433e-25
-4.73998e-23
4.57303e-23
1.42654e-25
-4.75424e-23
4.58729e-23
1.42874e-25
-4.76853e-23
4.60158e-23
1.43096e-25
-4.78283e-23
4.61589e-23
1.43315e-25
-4.79716e-23
4.63023e-23
1.43537e-25
-4.81151e-23
4.64458e-23
1.43757e-25
-4.82588e-23
4.65896e-23
1.43978e-25
-4.84028e-23
4.67336e-23
1.44198e-25
-4.85469e-23
4.68778e-23
1.4442e-25
-4.86913e-23
4.70223e-23
1.4464e-25
-4.88359e-23
4.71669e-23
1.44861e-25
-4.89807e-23
4.73118e-23
1.4508e-25
-4.91258e-23
4.74569e-23
1.45302e-25
-4.92711e-23
4.76023e-23
1.45522e-25
-4.94165e-23
4.77478e-23
1.45744e-25
-4.95622e-23
4.78936e-23
1.45963e-25
-4.97082e-23
4.80396e-23
1.46185e-25
-4.98543e-23
4.81858e-23
1.46405e-25
-5.00007e-23
4.83322e-23
1.46627e-25
-5.01473e-23
4.84788e-23
1.46846e-25
-5.02941e-23
4.86257e-23
1.47067e-25
-5.04411e-23
4.87728e-23
1.47287e-25
-5.05884e-23
4.89201e-23
1.47509e-25
-5.07358e-23
4.90676e-23
1.47729e-25
-5.08835e-23
4.92154e-23
1.47951e-25
-5.10314e-23
4.93634e-23
1.4817e-25
-5.11796e-23
4.95116e-23
1.48391e-25
-5.13279e-23
4.966e-23
1.48611e-25
-5.14765e-23
4.98086e-23
1.48833e-25
-5.16253e-23
4.99575e-23
1.49053e-25
-5.17743e-23
5.01065e-23
1.49275e-25
-5.19236e-23
5.02558e-23
1.49495e-25
-5.2073e-23
5.04054e-23
1.49716e-25
-5.22227e-23
5.05551e-23
1.49936e-25
-5.23726e-23
5.0705e-23
1.50157e-25
-5.25227e-23
5.08552e-23
1.50377e-25
-5.26731e-23
5.10056e-23
1.50598e-25
-5.28236e-23
5.11562e-23
1.50818e-25
-5.29744e-23
5.13071e-23
1.51039e-25
-5.31254e-23
5.14581e-23
1.51259e-25
-5.32766e-23
5.16094e-23
1.51482e-25
-5.34281e-23
5.17609e-23
1.51701e-25
-5.35797e-23
5.19127e-23
1.51923e-25
-5.37316e-23
5.20646e-23
1.52142e-25
-5.38837e-23
5.22168e-23
1.52364e-25
-5.40361e-23
5.23692e-23
1.52584e-25
-5.41886e-23
5.25218e-23
1.52806e-25
-5.43414e-23
5.26746e-23
1.53025e-25
-5.44944e-23
5.28276e-23
1.53247e-25
-5.46476e-23
5.29809e-23
1.53466e-25
-5.4801e-23
5.31344e-23
1.53688e-25
-5.49547e-23
5.32881e-23
1.53908e-25
-5.51085e-23
5.3442e-23
1.5413e-25
-5.52626e-23
5.35962e-23
1.54349e-25
-5.54169e-23
5.37506e-23
1.54571e-25
-5.55715e-23
5.39051e-23
1.5479e-25
-5.57262e-23
5.406e-23
1.55012e-25
-5.58812e-23
5.4215e-23
1.55231e-25
-5.60364e-23
5.43702e-23
1.55454e-25
-5.61918e-23
5.45257e-23
1.55673e-25
-5.63475e-23
5.46814e-23
1.55895e-25
-5.65033e-23
5.48373e-23
1.56115e-25
-5.66594e-23
5.49935e-23
1.56336e-25
-5.68157e-23
5.51498e-23
1.56556e-25
-5.69722e-23
5.53064e-23
1.56778e-25
-5.71289e-23
5.54632e-23
1.56997e-25
-5.72859e-23
5.56202e-23
1.57218e-25
-5.74431e-23
5.57775e-23
1.57438e-25
-5.76005e-23
5.59349e-23
1.5766e-25
-5.77581e-23
5.60926e-23
1.57881e-25
-5.7916e-23
5.62505e-23
1.58102e-25
-5.8074e-23
5.64086e-23
1.58321e-25
-5.82323e-23
5.6567e-23
1.58542e-25
-5.83908e-23
5.67255e-23
1.58762e-25
-5.85495e-23
5.68843e-23
1.58984e-25
-5.87085e-23
5.70433e-23
1.59204e-25
-5.88677e-23
5.72026e-23
1.59426e-25
-5.9027e-23
5.7362e-23
1.59646e-25
-5.91867e-23
5.75217e-23
1.59867e-25
-5.93465e-23
5.76816e-23
1.60086e-25
-5.95065e-23
5.78417e-23
1.60309e-25
-5.96668e-23
5.8002e-23
1.60528e-25
-5.98273e-23
5.81626e-23
1.60749e-25
-5.9988e-23
5.83233e-23
1.60969e-25
-6.01489e-23
5.84843e-23
1.61191e-25
-6.03101e-23
5.86455e-23
1.61411e-25
-6.04715e-23
5.8807e-23
1.61632e-25
-6.06331e-23
5.89686e-23
1.61852e-25
-6.07949e-23
5.91305e-23
1.62074e-25
-6.09569e-23
5.92926e-23
1.62294e-25
-6.11192e-23
5.94549e-23
1.62514e-25
-6.12817e-23
5.96175e-23
1.62735e-25
-6.14444e-23
5.97802e-23
1.62956e-25
-6.16073e-23
5.99432e-23
1.63176e-25
-6.17704e-23
6.01064e-23
1.63398e-25
-6.19338e-23
6.02698e-23
1.63617e-25
-6.20974e-23
6.04334e-23
1.63839e-25
-6.22612e-23
6.05973e-23
1.64058e-25
-6.24252e-23
6.07614e-23
1.6428e-25
-6.25894e-23
6.09257e-23
1.645e-25
-6.27539e-23
6.10902e-23
1.64721e-25
-6.29186e-23
6.1255e-23
1.64941e-25
-6.30835e-23
6.14199e-23
1.65162e-25
-6.32486e-23
6.15851e-23
1.65382e-25
-6.3414e-23
6.17505e-23
1.65605e-25
-6.35795e-23
6.19161e-23
1.65824e-25
-6.37453e-23
6.2082e-23
1.66046e-25
-6.39113e-23
6.22481e-23
1.66266e-25
-6.40776e-23
6.24143e-23
1.66488e-25
-6.4244e-23
6.25808e-23
1.66707e-25
-6.44107e-23
6.27476e-23
1.66929e-25
-6.45776e-23
6.29145e-23
1.67149e-25
-6.47447e-23
6.30817e-23
1.6737e-25
-6.4912e-23
6.32491e-23
1.67591e-25
-6.50796e-23
6.34167e-23
1.67811e-25
-6.52473e-23
6.35845e-23
1.68031e-25
-6.54153e-23
6.37526e-23
1.68253e-25
-6.55835e-23
6.39209e-23
1.68473e-25
-6.5752e-23
6.40894e-23
1.68694e-25
-6.59206e-23
6.42581e-23
1.68913e-25
-6.60895e-23
6.4427e-23
1.69135e-25
-6.62586e-23
6.45962e-23
1.69354e-25
-6.64279e-23
6.47655e-23
1.69576e-25
-6.65975e-23
6.49351e-23
1.69796e-25
-6.67672e-23
6.5105e-23
1.70017e-25
-6.69372e-23
6.5275e-23
1.70237e-25
-6.71074e-23
6.54453e-23
1.70459e-25
-6.72778e-23
6.56157e-23
1.70679e-25
-6.74485e-23
6.57864e-23
1.709e-25
-6.76193e-23
6.59574e-23
1.7112e-25
-6.77904e-23
6.61285e-23
1.71342e-25
-6.79617e-23
6.62999e-23
1.71561e-25
-6.81333e-23
6.64715e-23
1.71783e-25
-6.8305e-23
6.66433e-23
1.72002e-25
-6.8477e-23
6.68153e-23
1.72224e-25
-6.86492e-23
6.69875e-23
1.72444e-25
-6.88216e-23
6.716e-23
1.72666e-25
-6.89942e-23
6.73327e-23
1.72886e-25
-6.9167e-23
6.75056e-23
1.73108e-25
-6.93401e-23
6.76787e-23
1.73327e-25
-6.95134e-23
6.78521e-23
1.73548e-25
-6.96869e-23
6.80257e-23
1.73768e-25
-6.98607e-23
6.81994e-23
1.73989e-25
-7.00346e-23
6.83735e-23
1.74209e-25
-7.02088e-23
6.85477e-23
1.74431e-25