/*--------------------------------*- C++ -*----------------------------------*\
| =========                 |                                                 |
| \\      /  F ield         | OpenFOAM: The Open Source CFD Toolbox           |
|  \\    /   O peration     | Version:  2206                                  |
|   \\  /    A nd           | Website:  www.openfoam.com                      |
|    \\/     M anipulation  |                                                 |
\*---------------------------------------------------------------------------*/
FoamFile
{
    version     2.0;
    format      ascii;
    arch        "LSB;label=32;scalar=64";
    class       volVectorField;
    location    "24";
    object      U;
}
// * * * * * * * * * * * * * * * * * * * * * * * * * * * * * * * * * * * * * //

dimensions      [0 1 -1 0 0 0 0];

internalField   nonuniform List<vector> 
70000
(
(-1.10491e-09 4.82315e-06 -6.59668e-10)
(-3.51742e-10 5.99814e-06 -5.54742e-10)
(-1.25441e-09 1.3653e-05 -8.77581e-11)
(-2.95962e-10 1.64131e-05 4.21579e-11)
(-5.91167e-10 2.25215e-05 -3.62822e-11)
(-7.26509e-11 2.6903e-05 -1.52682e-11)
(-3.93153e-10 3.13962e-05 -1.96598e-11)
(-4.71376e-11 3.74535e-05 -1.63618e-11)
(-3.01541e-10 4.028e-05 -8.9916e-12)
(-4.91454e-11 4.80348e-05 -8.60103e-12)
(-2.48104e-10 4.9172e-05 -3.06033e-12)
(-4.97763e-11 5.86327e-05 -2.84611e-12)
(-2.10532e-10 5.80702e-05 -9.91071e-13)
(-4.60252e-11 6.92403e-05 -8.70291e-13)
(-1.82919e-10 6.69728e-05 -6.23004e-14)
(-4.09808e-11 7.98541e-05 -2.61826e-14)
(-1.61846e-10 7.58786e-05 7.05405e-14)
(-3.62903e-11 9.0472e-05 1.12715e-13)
(-1.45377e-10 8.47867e-05 2.37272e-13)
(-3.22995e-11 0.000101093 2.7514e-13)
(-1.32094e-10 9.36964e-05 1.64379e-13)
(-2.90284e-11 0.000111716 2.07506e-13)
(-1.21155e-10 0.000102607 1.89053e-13)
(-2.62802e-11 0.00012234 1.80543e-13)
(-1.11687e-10 0.000111519 1.49589e-13)
(-2.39068e-11 0.000132966 1.00361e-13)
(-1.03482e-10 0.000120432 1.68299e-13)
(-2.18259e-11 0.000143592 9.37159e-14)
(-9.63367e-11 0.000129345 1.7979e-13)
(-2.00319e-11 0.000154219 1.24372e-13)
(-9.02894e-11 0.000138259 1.80898e-13)
(-1.84991e-11 0.000164847 1.55971e-13)
(-8.50899e-11 0.000147173 1.8579e-13)
(-1.71401e-11 0.000175475 1.76526e-13)
(-8.05161e-11 0.000156088 1.82057e-13)
(-1.59023e-11 0.000186104 1.75894e-13)
(-7.64276e-11 0.000165002 1.8108e-13)
(-1.47675e-11 0.000196733 1.69614e-13)
(-7.27391e-11 0.000173917 1.7519e-13)
(-1.37304e-11 0.000207362 1.58245e-13)
(-6.93972e-11 0.000182832 1.73548e-13)
(-1.27845e-11 0.000217991 1.50785e-13)
(-6.63583e-11 0.000191748 1.69079e-13)
(-1.19212e-11 0.000228621 1.42812e-13)
(-6.35881e-11 0.000200663 1.68401e-13)
(-1.11305e-11 0.000239251 1.38668e-13)
(-6.10554e-11 0.000209579 1.65333e-13)
(-1.04035e-11 0.000249881 1.33738e-13)
(-5.87343e-11 0.000218494 1.65254e-13)
(-9.73171e-12 0.000260511 1.31444e-13)
(-5.66006e-11 0.00022741 1.63057e-13)
(-9.10839e-12 0.000271141 1.28107e-13)
(-5.46347e-11 0.000236326 1.63265e-13)
(-8.52752e-12 0.000281771 1.2675e-13)
(-5.28184e-11 0.000245242 1.61613e-13)
(-7.98414e-12 0.000292402 1.2437e-13)
(-5.11367e-11 0.000254158 1.6194e-13)
(-7.47392e-12 0.000303032 1.23559e-13)
(-4.95757e-11 0.000263074 1.60656e-13)
(-6.99322e-12 0.000313663 1.21813e-13)
(-4.81242e-11 0.00027199 1.61036e-13)
(-6.5389e-12 0.000324293 1.21371e-13)
(-4.67714e-11 0.000280907 1.60011e-13)
(-6.10828e-12 0.000334924 1.20084e-13)
(-4.55087e-11 0.000289823 1.60396e-13)
(-5.69901e-12 0.000345555 1.19873e-13)
(-4.43278e-11 0.000298739 1.59564e-13)
(-5.30904e-12 0.000356186 1.18901e-13)
(-4.32219e-11 0.000307655 1.59943e-13)
(-4.9366e-12 0.000366817 1.18847e-13)
(-4.21845e-11 0.000316572 1.59255e-13)
(-4.58013e-12 0.000377448 1.18108e-13)
(-4.12102e-11 0.000325488 1.59615e-13)
(-4.23824e-12 0.000388079 1.18147e-13)
(-4.02937e-11 0.000334405 1.59041e-13)
(-3.9097e-12 0.00039871 1.17568e-13)
(-3.94308e-11 0.000343321 1.59377e-13)
(-3.59338e-12 0.000409341 1.17654e-13)
(-3.86172e-11 0.000352238 1.5888e-13)
(-3.28846e-12 0.000419972 1.17173e-13)
(-3.78495e-11 0.000361154 1.59197e-13)
(-2.99399e-12 0.000430603 1.17304e-13)
(-3.71242e-11 0.000370071 1.58784e-13)
(-2.7091e-12 0.000441234 1.16946e-13)
(-3.64384e-11 0.000378987 1.59088e-13)
(-2.4331e-12 0.000451865 1.17122e-13)
(-3.57895e-11 0.000387904 1.58733e-13)
(-2.16534e-12 0.000462496 1.16839e-13)
(-3.51749e-11 0.00039682 1.59013e-13)
(-1.90525e-12 0.000473127 1.17018e-13)
(-3.45923e-11 0.000405737 1.58706e-13)
(-1.6523e-12 0.000483758 1.16777e-13)
(-3.40397e-11 0.000414653 1.58972e-13)
(-1.40602e-12 0.00049439 1.16963e-13)
(-3.35152e-11 0.00042357 1.58706e-13)
(-1.16597e-12 0.000505021 1.16766e-13)
(-3.30171e-11 0.000432487 1.58955e-13)
(-9.31732e-13 0.000515652 1.16952e-13)
(-3.25437e-11 0.000441403 1.58722e-13)
(-7.02948e-13 0.000526283 1.16786e-13)
(-3.20936e-11 0.00045032 1.58956e-13)
(-4.79274e-13 0.000536915 1.16972e-13)
(-3.16654e-11 0.000459237 1.5875e-13)
(-2.60402e-13 0.000547546 1.16832e-13)
(-3.12579e-11 0.000468153 1.58969e-13)
(-4.60416e-14 0.000558177 1.17014e-13)
(-3.08699e-11 0.00047707 1.58786e-13)
(1.64071e-13 0.000568809 1.16892e-13)
(-3.05003e-11 0.000485987 1.58992e-13)
(3.70182e-13 0.00057944 1.1707e-13)
(-3.01481e-11 0.000494903 1.5883e-13)
(5.72513e-13 0.000590071 1.16967e-13)
(-2.98125e-11 0.00050382 1.59022e-13)
(7.71278e-13 0.000600703 1.17139e-13)
(-2.94924e-11 0.000512737 1.58876e-13)
(9.66671e-13 0.000611334 1.17047e-13)
(-2.91871e-11 0.000521653 1.59058e-13)
(1.15887e-12 0.000621965 1.17213e-13)
(-2.88959e-11 0.00053057 1.58926e-13)
(1.34805e-12 0.000632597 1.17133e-13)
(-2.86181e-11 0.000539487 1.59097e-13)
(1.53436e-12 0.000643228 1.17292e-13)
(-2.8353e-11 0.000548404 1.58977e-13)
(1.71796e-12 0.00065386 1.1722e-13)
(-2.80999e-11 0.00055732 1.59138e-13)
(1.89897e-12 0.000664491 1.17373e-13)
(-2.78584e-11 0.000566237 1.59029e-13)
(2.07752e-12 0.000675122 1.17308e-13)
(-2.76278e-11 0.000575154 1.5918e-13)
(2.25374e-12 0.000685754 1.17454e-13)
(-2.74077e-11 0.000584071 1.59079e-13)
(2.42773e-12 0.000696385 1.17393e-13)
(-2.71976e-11 0.000592988 1.59223e-13)
(2.59961e-12 0.000707017 1.17534e-13)
(-2.6997e-11 0.000601904 1.5913e-13)
(2.76946e-12 0.000717648 1.17479e-13)
(-2.68055e-11 0.000610821 1.59265e-13)
(2.93738e-12 0.000728279 1.17611e-13)
(-2.66228e-11 0.000619738 1.59179e-13)
(3.10346e-12 0.000738911 1.1756e-13)
(-2.64483e-11 0.000628655 1.59308e-13)
(3.26778e-12 0.000749542 1.17688e-13)
(-2.62819e-11 0.000637571 1.59228e-13)
(3.43042e-12 0.000760174 1.1764e-13)
(-2.61231e-11 0.000646488 1.59349e-13)
(3.59145e-12 0.000770805 1.17762e-13)
(-2.59717e-11 0.000655405 1.59274e-13)
(3.75093e-12 0.000781437 1.17715e-13)
(-2.58272e-11 0.000664322 1.5939e-13)
(3.90893e-12 0.000792068 1.17832e-13)
(-2.56896e-11 0.000673239 1.5932e-13)
(4.06552e-12 0.0008027 1.17789e-13)
(-2.55584e-11 0.000682155 1.59429e-13)
(4.22075e-12 0.000813331 1.17901e-13)
(-2.54334e-11 0.000691072 1.59363e-13)
(4.37467e-12 0.000823963 1.17859e-13)
(-2.53144e-11 0.000699989 1.59467e-13)
(4.52734e-12 0.000834594 1.17965e-13)
(-2.52012e-11 0.000708906 1.59405e-13)
(4.67881e-12 0.000845226 1.17926e-13)
(-2.50935e-11 0.000717823 1.59505e-13)
(4.82912e-12 0.000855857 1.18029e-13)
(-2.49912e-11 0.00072674 1.59445e-13)
(4.97832e-12 0.000866489 1.1799e-13)
(-2.4894e-11 0.000735656 1.5954e-13)
(5.12645e-12 0.00087712 1.18088e-13)
(-2.48017e-11 0.000744573 1.59483e-13)
(5.27354e-12 0.000887752 1.1805e-13)
(-2.47142e-11 0.00075349 1.59574e-13)
(5.41964e-12 0.000898383 1.18143e-13)
(-2.46313e-11 0.000762407 1.5952e-13)
(5.56479e-12 0.000909015 1.18107e-13)
(-2.45528e-11 0.000771324 1.59606e-13)
(5.70901e-12 0.000919646 1.18197e-13)
(-2.44786e-11 0.000780241 1.59554e-13)
(5.85235e-12 0.000930278 1.18161e-13)
(-2.44086e-11 0.000789157 1.59637e-13)
(5.99482e-12 0.000940909 1.18247e-13)
(-2.43425e-11 0.000798074 1.59588e-13)
(6.13646e-12 0.000951541 1.18212e-13)
(-2.42803e-11 0.000806991 1.59667e-13)
(6.2773e-12 0.000962172 1.18295e-13)
(-2.42219e-11 0.000815908 1.5962e-13)
(6.41737e-12 0.000972804 1.18262e-13)
(-2.4167e-11 0.000824825 1.59696e-13)
(6.5567e-12 0.000983435 1.18342e-13)
(-2.41157e-11 0.000833742 1.5965e-13)
(6.69529e-12 0.000994067 1.18309e-13)
(-2.40677e-11 0.000842659 1.59723e-13)
(6.83319e-12 0.0010047 1.18385e-13)
(-2.40229e-11 0.000851575 1.59678e-13)
(6.97041e-12 0.00101533 1.18352e-13)
(-2.39814e-11 0.000860492 1.59748e-13)
(7.10698e-12 0.00102596 1.18426e-13)
(-2.39429e-11 0.000869409 1.59706e-13)
(7.24291e-12 0.00103659 1.18394e-13)
(-2.39074e-11 0.000878326 1.59773e-13)
(7.37823e-12 0.00104722 1.18466e-13)
(-2.38747e-11 0.000887243 1.59733e-13)
(7.51295e-12 0.00105786 1.18435e-13)
(-2.38449e-11 0.00089616 1.59797e-13)
(7.64709e-12 0.00106849 1.18503e-13)
(-2.38178e-11 0.000905077 1.59757e-13)
(7.78067e-12 0.00107912 1.18472e-13)
(-2.37932e-11 0.000913994 1.59819e-13)
(7.91371e-12 0.00108975 1.18537e-13)
(-2.37713e-11 0.00092291 1.59781e-13)
(8.04622e-12 0.00110038 1.18507e-13)
(-2.37518e-11 0.000931827 1.5984e-13)
(8.17822e-12 0.00111101 1.18571e-13)
(-2.37347e-11 0.000940744 1.59803e-13)
(8.30973e-12 0.00112165 1.18541e-13)
(-2.372e-11 0.000949661 1.5986e-13)
(8.44075e-12 0.00113228 1.18601e-13)
(-2.37075e-11 0.000958578 1.59824e-13)
(8.5713e-12 0.00114291 1.18572e-13)
(-2.36973e-11 0.000967495 1.59879e-13)
(8.70139e-12 0.00115354 1.18631e-13)
(-2.36891e-11 0.000976412 1.59844e-13)
(8.83104e-12 0.00116417 1.18602e-13)
(-2.36831e-11 0.000985329 1.59897e-13)
(8.96026e-12 0.0011748 1.18659e-13)
(-2.36791e-11 0.000994245 1.59864e-13)
(9.08906e-12 0.00118543 1.18631e-13)
(-2.36771e-11 0.00100316 1.59915e-13)
(9.21745e-12 0.00119607 1.18686e-13)
(-2.3677e-11 0.00101208 1.59882e-13)
(9.34544e-12 0.0012067 1.18658e-13)
(-2.36787e-11 0.001021 1.59931e-13)
(9.47305e-12 0.00121733 1.18711e-13)
(-2.36823e-11 0.00102991 1.59899e-13)
(9.60028e-12 0.00122796 1.18684e-13)
(-2.36877e-11 0.00103883 1.59947e-13)
(9.72715e-12 0.00123859 1.18735e-13)
(-2.36947e-11 0.00104775 1.59916e-13)
(9.85365e-12 0.00124922 1.18708e-13)
(-2.37035e-11 0.00105666 1.59962e-13)
(9.97981e-12 0.00125986 1.18758e-13)
(-2.37139e-11 0.00106558 1.59932e-13)
(1.01056e-11 0.00127049 1.18732e-13)
(-2.37259e-11 0.0010745 1.59976e-13)
(1.02311e-11 0.00128112 1.18779e-13)
(-2.37394e-11 0.00108341 1.59946e-13)
(1.03563e-11 0.00129175 1.18753e-13)
(-2.37545e-11 0.00109233 1.5999e-13)
(1.04811e-11 0.00130238 1.188e-13)
(-2.37711e-11 0.00110125 1.5996e-13)
(1.06057e-11 0.00131301 1.18774e-13)
(-2.37891e-11 0.00111016 1.60002e-13)
(1.07299e-11 0.00132364 1.18819e-13)
(-2.38085e-11 0.00111908 1.59974e-13)
(1.08539e-11 0.00133428 1.18793e-13)
(-2.38293e-11 0.001128 1.60014e-13)
(1.09775e-11 0.00134491 1.18836e-13)
(-2.38514e-11 0.00113692 1.59986e-13)
(1.11009e-11 0.00135554 1.18811e-13)
(-2.38748e-11 0.00114583 1.60025e-13)
(1.12241e-11 0.00136617 1.18853e-13)
(-2.38995e-11 0.00115475 1.59998e-13)
(1.13469e-11 0.0013768 1.18829e-13)
(-2.39255e-11 0.00116367 1.60036e-13)
(1.14695e-11 0.00138743 1.1887e-13)
(-2.39527e-11 0.00117258 1.6001e-13)
(1.15918e-11 0.00139807 1.18846e-13)
(-2.39811e-11 0.0011815 1.60047e-13)
(1.17139e-11 0.0014087 1.18885e-13)
(-2.40106e-11 0.00119042 1.60021e-13)
(1.18358e-11 0.00141933 1.18862e-13)
(-2.40413e-11 0.00119933 1.60057e-13)
(1.19574e-11 0.00142996 1.18901e-13)
(-2.40731e-11 0.00120825 1.60031e-13)
(1.20788e-11 0.00144059 1.18877e-13)
(-2.4106e-11 0.00121717 1.60066e-13)
(1.21999e-11 0.00145122 1.18914e-13)
(-2.414e-11 0.00122608 1.60041e-13)
(1.23208e-11 0.00146186 1.18891e-13)
(-2.4175e-11 0.001235 1.60075e-13)
(1.24415e-11 0.00147249 1.18927e-13)
(-2.4211e-11 0.00124392 1.6005e-13)
(1.2562e-11 0.00148312 1.18904e-13)
(-2.4248e-11 0.00125284 1.60083e-13)
(1.26823e-11 0.00149375 1.1894e-13)
(-2.4286e-11 0.00126175 1.6006e-13)
(1.28024e-11 0.00150438 1.18918e-13)
(-2.4325e-11 0.00127067 1.60092e-13)
(1.29223e-11 0.00151501 1.18953e-13)
(-2.43648e-11 0.00127959 1.60068e-13)
(1.3042e-11 0.00152564 1.1893e-13)
(-2.44056e-11 0.0012885 1.60099e-13)
(1.31615e-11 0.00153628 1.18964e-13)
(-2.44473e-11 0.00129742 1.60077e-13)
(1.32808e-11 0.00154691 1.18942e-13)
(-2.44899e-11 0.00130634 1.60106e-13)
(1.33999e-11 0.00155754 1.18974e-13)
(-2.45333e-11 0.00131525 1.60084e-13)
(1.35189e-11 0.00156817 1.18953e-13)
(-2.45776e-11 0.00132417 1.60114e-13)
(1.36377e-11 0.0015788 1.18985e-13)
(-2.46227e-11 0.00133309 1.60092e-13)
(1.37563e-11 0.00158943 1.18964e-13)
(-2.46686e-11 0.001342 1.6012e-13)
(1.38747e-11 0.00160007 1.18995e-13)
(-2.47153e-11 0.00135092 1.60099e-13)
(1.39929e-11 0.0016107 1.18975e-13)
(-2.47628e-11 0.00135984 1.60126e-13)
(1.4111e-11 0.00162133 1.19004e-13)
(-2.4811e-11 0.00136876 1.60105e-13)
(1.4229e-11 0.00163196 1.18983e-13)
(-2.486e-11 0.00137767 1.60132e-13)
(1.43468e-11 0.00164259 1.19012e-13)
(-2.49097e-11 0.00138659 1.60112e-13)
(1.44644e-11 0.00165322 1.18993e-13)
(-2.49602e-11 0.00139551 1.60138e-13)
(1.45819e-11 0.00166386 1.1902e-13)
(-2.50113e-11 0.00140442 1.60118e-13)
(1.46992e-11 0.00167449 1.19001e-13)
(-2.50631e-11 0.00141334 1.60143e-13)
(1.48164e-11 0.00168512 1.19029e-13)
(-2.51156e-11 0.00142226 1.60124e-13)
(1.49334e-11 0.00169575 1.1901e-13)
(-2.51688e-11 0.00143117 1.60148e-13)
(1.50503e-11 0.00170638 1.19036e-13)
(-2.52226e-11 0.00144009 1.60129e-13)
(1.51671e-11 0.00171701 1.19018e-13)
(-2.52771e-11 0.00144901 1.60153e-13)
(1.52837e-11 0.00172765 1.19044e-13)
(-2.53322e-11 0.00145792 1.60135e-13)
(1.54002e-11 0.00173828 1.19026e-13)
(-2.53879e-11 0.00146684 1.60158e-13)
(1.55166e-11 0.00174891 1.1905e-13)
(-2.54442e-11 0.00147576 1.6014e-13)
(1.56328e-11 0.00175954 1.19032e-13)
(-2.55011e-11 0.00148468 1.60163e-13)
(1.5749e-11 0.00177017 1.19057e-13)
(-2.55586e-11 0.00149359 1.60145e-13)
(1.5865e-11 0.0017808 1.19039e-13)
(-2.56166e-11 0.00150251 1.60167e-13)
(1.59808e-11 0.00179143 1.19063e-13)
(-2.56752e-11 0.00151143 1.60149e-13)
(1.60966e-11 0.00180207 1.19046e-13)
(-2.57344e-11 0.00152034 1.60171e-13)
(1.62122e-11 0.0018127 1.19069e-13)
(-2.57941e-11 0.00152926 1.60155e-13)
(1.63277e-11 0.00182333 1.19053e-13)
(-2.58544e-11 0.00153818 1.60175e-13)
(1.64431e-11 0.00183396 1.19076e-13)
(-2.59151e-11 0.00154709 1.60158e-13)
(1.65584e-11 0.00184459 1.19059e-13)
(-2.59764e-11 0.00155601 1.60179e-13)
(1.66736e-11 0.00185522 1.19081e-13)
(-2.60382e-11 0.00156493 1.60163e-13)
(1.67887e-11 0.00186586 1.19065e-13)
(-2.61005e-11 0.00157384 1.60183e-13)
(1.69037e-11 0.00187649 1.19087e-13)
(-2.61633e-11 0.00158276 1.60167e-13)
(1.70185e-11 0.00188712 1.19071e-13)
(-2.62266e-11 0.00159168 1.60186e-13)
(1.71333e-11 0.00189775 1.19092e-13)
(-2.62903e-11 0.00160059 1.60171e-13)
(1.7248e-11 0.00190838 1.19076e-13)
(-2.63545e-11 0.00160951 1.60189e-13)
(1.73625e-11 0.00191901 1.19096e-13)
(-2.64191e-11 0.00161843 1.60174e-13)
(1.7477e-11 0.00192965 1.19081e-13)
(-2.64842e-11 0.00162735 1.60193e-13)
(1.75914e-11 0.00194028 1.19101e-13)
(-2.65498e-11 0.00163626 1.60178e-13)
(1.77056e-11 0.00195091 1.19086e-13)
(-2.66158e-11 0.00164518 1.60196e-13)
(1.78198e-11 0.00196154 1.19106e-13)
(-2.66822e-11 0.0016541 1.60181e-13)
(1.79339e-11 0.00197217 1.19091e-13)
(-2.6749e-11 0.00166301 1.60199e-13)
(1.80479e-11 0.0019828 1.1911e-13)
(-2.68162e-11 0.00167193 1.60184e-13)
(1.81618e-11 0.00199344 1.19095e-13)
(-2.68839e-11 0.00168085 1.60202e-13)
(1.82757e-11 0.00200407 1.19114e-13)
(-2.69519e-11 0.00168976 1.60187e-13)
(1.83894e-11 0.0020147 1.19099e-13)
(-2.70204e-11 0.00169868 1.60204e-13)
(1.85031e-11 0.00202533 1.19118e-13)
(-2.70892e-11 0.0017076 1.6019e-13)
(1.86167e-11 0.00203596 1.19104e-13)
(-2.71584e-11 0.00171651 1.60207e-13)
(1.87301e-11 0.00204659 1.19122e-13)
(-2.7228e-11 0.00172543 1.60193e-13)
(1.88436e-11 0.00205722 1.19108e-13)
(-2.7298e-11 0.00173435 1.60209e-13)
(1.89569e-11 0.00206786 1.19126e-13)
(-2.73683e-11 0.00174327 1.60196e-13)
(1.90701e-11 0.00207849 1.19112e-13)
(-2.7439e-11 0.00175218 1.60212e-13)
(1.91833e-11 0.00208912 1.1913e-13)
(-2.751e-11 0.0017611 1.60199e-13)
(1.92964e-11 0.00209975 1.19117e-13)
(-2.75814e-11 0.00177002 1.60214e-13)
(1.94095e-11 0.00211038 1.19133e-13)
(-2.76532e-11 0.00177893 1.60201e-13)
(1.95224e-11 0.00212101 1.1912e-13)
(-2.77252e-11 0.00178785 1.60216e-13)
(1.96353e-11 0.00213165 1.19136e-13)
(-2.77976e-11 0.00179677 1.60203e-13)
(1.97481e-11 0.00214228 1.19122e-13)
(-2.78704e-11 0.00180568 1.60218e-13)
(1.98608e-11 0.00215291 1.19139e-13)
(-2.79434e-11 0.0018146 1.60206e-13)
(1.99735e-11 0.00216354 1.19126e-13)
(-2.80168e-11 0.00182352 1.6022e-13)
(2.00861e-11 0.00217417 1.19142e-13)
(-2.80905e-11 0.00183243 1.60208e-13)
(2.01987e-11 0.0021848 1.19129e-13)
(-2.81644e-11 0.00184135 1.60223e-13)
(2.03111e-11 0.00219544 1.19146e-13)
(-2.82387e-11 0.00185027 1.60211e-13)
(2.04235e-11 0.00220607 1.19133e-13)
(-2.83133e-11 0.00185919 1.60225e-13)
(2.05359e-11 0.0022167 1.19148e-13)
(-2.83882e-11 0.0018681 1.60213e-13)
(2.06481e-11 0.00222733 1.19137e-13)
(-2.84634e-11 0.00187702 1.60227e-13)
(2.07603e-11 0.00223796 1.19151e-13)
(-2.85389e-11 0.00188594 1.60215e-13)
(2.08725e-11 0.00224859 1.19139e-13)
(-2.86146e-11 0.00189485 1.60228e-13)
(2.09846e-11 0.00225923 1.19153e-13)
(-2.86907e-11 0.00190377 1.60217e-13)
(2.10966e-11 0.00226986 1.19141e-13)
(-2.8767e-11 0.00191269 1.6023e-13)
(2.12086e-11 0.00228049 1.19156e-13)
(-2.88436e-11 0.0019216 1.60219e-13)
(2.13205e-11 0.00229112 1.19145e-13)
(-2.89204e-11 0.00193052 1.60232e-13)
(2.14323e-11 0.00230175 1.19159e-13)
(-2.89975e-11 0.00193944 1.60221e-13)
(2.15441e-11 0.00231238 1.19148e-13)
(-2.90749e-11 0.00194835 1.60233e-13)
(2.16559e-11 0.00232302 1.19161e-13)
(-2.91525e-11 0.00195727 1.60222e-13)
(2.17675e-11 0.00233365 1.1915e-13)
(-2.92304e-11 0.00196619 1.60235e-13)
(2.18792e-11 0.00234428 1.19163e-13)
(-2.93085e-11 0.00197511 1.60224e-13)
(2.19907e-11 0.00235491 1.19153e-13)
(-2.93869e-11 0.00198402 1.60236e-13)
(2.21023e-11 0.00236554 1.19166e-13)
(-2.94655e-11 0.00199294 1.60226e-13)
(2.22137e-11 0.00237617 1.19155e-13)
(-2.95444e-11 0.00200186 1.60238e-13)
(2.23251e-11 0.0023868 1.19168e-13)
(-2.96235e-11 0.00201077 1.60227e-13)
(2.24365e-11 0.00239744 1.19157e-13)
(-2.97028e-11 0.00201969 1.60239e-13)
(2.25478e-11 0.00240807 1.19169e-13)
(-2.97824e-11 0.00202861 1.60229e-13)
(2.26591e-11 0.0024187 1.1916e-13)
(-2.98622e-11 0.00203752 1.6024e-13)
(2.27703e-11 0.00242933 1.19172e-13)
(-2.99422e-11 0.00204644 1.60231e-13)
(2.28815e-11 0.00243996 1.19162e-13)
(-3.00224e-11 0.00205536 1.60242e-13)
(2.29926e-11 0.00245059 1.19174e-13)
(-3.01029e-11 0.00206427 1.60232e-13)
(2.31036e-11 0.00246123 1.19164e-13)
(-3.01836e-11 0.00207319 1.60243e-13)
(2.32147e-11 0.00247186 1.19176e-13)
(-3.02644e-11 0.00208211 1.60233e-13)
(2.33256e-11 0.00248249 1.19166e-13)
(-3.03455e-11 0.00209103 1.60244e-13)
(2.34366e-11 0.00249312 1.19178e-13)
(-3.04268e-11 0.00209994 1.60235e-13)
(2.35474e-11 0.00250375 1.19169e-13)
(-3.05083e-11 0.00210886 1.60246e-13)
(2.36583e-11 0.00251438 1.19181e-13)
(-3.059e-11 0.00211778 1.60237e-13)
(2.37691e-11 0.00252502 1.19171e-13)
(-3.0672e-11 0.00212669 1.60247e-13)
(2.38798e-11 0.00253565 1.19182e-13)
(-3.07541e-11 0.00213561 1.60237e-13)
(2.39905e-11 0.00254628 1.19172e-13)
(-3.08364e-11 0.00214453 1.60248e-13)
(2.41012e-11 0.00255691 1.19183e-13)
(-3.09189e-11 0.00215344 1.6024e-13)
(2.42118e-11 0.00256754 1.19175e-13)
(-3.10015e-11 0.00216236 1.60249e-13)
(2.43224e-11 0.00257817 1.19186e-13)
(-3.10844e-11 0.00217128 1.6024e-13)
(2.44329e-11 0.00258881 1.19176e-13)
(-3.11675e-11 0.0021802 1.6025e-13)
(2.45434e-11 0.00259944 1.19187e-13)
(-3.12507e-11 0.00218911 1.60242e-13)
(2.46539e-11 0.00261007 1.19178e-13)
(-3.13341e-11 0.00219803 1.60251e-13)
(2.47643e-11 0.0026207 1.19189e-13)
(-3.14177e-11 0.00220695 1.60242e-13)
(2.48747e-11 0.00263133 1.1918e-13)
(-3.15015e-11 0.00221586 1.60252e-13)
(2.49851e-11 0.00264196 1.1919e-13)
(-3.15854e-11 0.00222478 1.60244e-13)
(2.50954e-11 0.0026526 1.19182e-13)
(-3.16696e-11 0.0022337 1.60253e-13)
(2.52056e-11 0.00266323 1.19192e-13)
(-3.17539e-11 0.00224261 1.60245e-13)
(2.53159e-11 0.00267386 1.19183e-13)
(-3.18383e-11 0.00225153 1.60254e-13)
(2.54261e-11 0.00268449 1.19194e-13)
(-3.19229e-11 0.00226045 1.60246e-13)
(2.55362e-11 0.00269512 1.19185e-13)
(-3.20077e-11 0.00226936 1.60255e-13)
(2.56463e-11 0.00270575 1.19195e-13)
(-3.20927e-11 0.00227828 1.60247e-13)
(2.57564e-11 0.00271638 1.19187e-13)
(-3.21778e-11 0.0022872 1.60256e-13)
(2.58665e-11 0.00272702 1.19196e-13)
(-3.22631e-11 0.00229612 1.60248e-13)
(2.59765e-11 0.00273765 1.19189e-13)
(-3.23485e-11 0.00230503 1.60256e-13)
(2.60865e-11 0.00274828 1.19198e-13)
(-3.24341e-11 0.00231395 1.60249e-13)
(2.61964e-11 0.00275891 1.19189e-13)
(-3.25198e-11 0.00232287 1.60257e-13)
(2.63063e-11 0.00276954 1.19198e-13)
(-3.26057e-11 0.00233178 1.60249e-13)
(2.64162e-11 0.00278017 1.1919e-13)
(-3.26918e-11 0.0023407 1.60258e-13)
(2.6526e-11 0.00279081 1.192e-13)
(-3.27779e-11 0.00234962 1.60251e-13)
(2.66359e-11 0.00280144 1.19193e-13)
(-3.28643e-11 0.00235853 1.60259e-13)
(2.67456e-11 0.00281207 1.19201e-13)
(-3.29507e-11 0.00236745 1.60251e-13)
(2.68554e-11 0.0028227 1.19193e-13)
(-3.30374e-11 0.00237637 1.60259e-13)
(2.69651e-11 0.00283333 1.19202e-13)
(-3.31241e-11 0.00238528 1.60252e-13)
(2.70748e-11 0.00284396 1.19195e-13)
(-3.3211e-11 0.0023942 1.6026e-13)
(2.71844e-11 0.0028546 1.19204e-13)
(-3.32981e-11 0.00240312 1.60253e-13)
(2.72941e-11 0.00286523 1.19196e-13)
(-3.33852e-11 0.00241204 1.6026e-13)
(2.74037e-11 0.00287586 1.19204e-13)
(-3.34725e-11 0.00242095 1.60254e-13)
(2.75132e-11 0.00288649 1.19197e-13)
(-3.356e-11 0.00242987 1.60261e-13)
(2.76228e-11 0.00289712 1.19206e-13)
(-3.36476e-11 0.00243879 1.60255e-13)
(2.77323e-11 0.00290775 1.19199e-13)
(-3.37353e-11 0.0024477 1.60262e-13)
(2.78418e-11 0.00291839 1.19207e-13)
(-3.38231e-11 0.00245662 1.60256e-13)
(2.79512e-11 0.00292902 1.192e-13)
(-3.39111e-11 0.00246554 1.60263e-13)
(2.80606e-11 0.00293965 1.19208e-13)
(-3.39992e-11 0.00247445 1.60256e-13)
(2.817e-11 0.00295028 1.19202e-13)
(-3.40874e-11 0.00248337 1.60263e-13)
(2.82794e-11 0.00296091 1.1921e-13)
(-3.41757e-11 0.00249229 1.60258e-13)
(2.83887e-11 0.00297154 1.19203e-13)
(-3.42642e-11 0.0025012 1.60264e-13)
(2.8498e-11 0.00298218 1.19211e-13)
(-3.43528e-11 0.00251012 1.60258e-13)
(2.86073e-11 0.00299281 1.19204e-13)
(-3.44415e-11 0.00251904 1.60265e-13)
(2.87166e-11 0.00300344 1.19212e-13)
(-3.45303e-11 0.00252796 1.60259e-13)
(2.88258e-11 0.00301407 1.19206e-13)
(-3.46192e-11 0.00253687 1.60265e-13)
(2.8935e-11 0.0030247 1.19212e-13)
(-3.47083e-11 0.00254579 1.60259e-13)
(2.90442e-11 0.00303533 1.19207e-13)
(-3.47974e-11 0.00255471 1.60266e-13)
(2.91534e-11 0.00304596 1.19214e-13)
(-3.48867e-11 0.00256362 1.6026e-13)
(2.92625e-11 0.0030566 1.19207e-13)
(-3.49761e-11 0.00257254 1.60266e-13)
(2.93716e-11 0.00306723 1.19214e-13)
(-3.50656e-11 0.00258146 1.6026e-13)
(2.94807e-11 0.00307786 1.19208e-13)
(-3.51553e-11 0.00259037 1.60266e-13)
(2.95897e-11 0.00308849 1.19215e-13)
(-3.5245e-11 0.00259929 1.60261e-13)
(2.96987e-11 0.00309912 1.19209e-13)
(-3.53348e-11 0.00260821 1.60267e-13)
(2.98078e-11 0.00310975 1.19216e-13)
(-3.54248e-11 0.00261712 1.60261e-13)
(2.99167e-11 0.00312039 1.1921e-13)
(-3.55148e-11 0.00262604 1.60267e-13)
(3.00257e-11 0.00313102 1.19217e-13)
(-3.5605e-11 0.00263496 1.60261e-13)
(3.01346e-11 0.00314165 1.19211e-13)
(-3.56952e-11 0.00264388 1.60267e-13)
(3.02435e-11 0.00315228 1.19217e-13)
(-3.57856e-11 0.00265279 1.60263e-13)
(3.03524e-11 0.00316291 1.19212e-13)
(-3.5876e-11 0.00266171 1.60268e-13)
(3.04613e-11 0.00317354 1.19219e-13)
(-3.59666e-11 0.00267063 1.60263e-13)
(3.05702e-11 0.00318418 1.19213e-13)
(-3.60573e-11 0.00267954 1.60268e-13)
(3.0679e-11 0.00319481 1.19219e-13)
(-3.6148e-11 0.00268846 1.60264e-13)
(3.07878e-11 0.00320544 1.19214e-13)
(-3.62389e-11 0.00269738 1.60269e-13)
(3.08966e-11 0.00321607 1.19221e-13)
(-3.63298e-11 0.00270629 1.60265e-13)
(3.10053e-11 0.0032267 1.19216e-13)
(-3.64209e-11 0.00271521 1.6027e-13)
(3.11141e-11 0.00323733 1.19222e-13)
(-3.6512e-11 0.00272413 1.60265e-13)
(3.12228e-11 0.00324797 1.19217e-13)
(-3.66032e-11 0.00273304 1.6027e-13)
(3.13315e-11 0.0032586 1.19222e-13)
(-3.66946e-11 0.00274196 1.60265e-13)
(3.14401e-11 0.00326923 1.19217e-13)
(-3.6786e-11 0.00275088 1.60271e-13)
(3.15488e-11 0.00327986 1.19223e-13)
(-3.68775e-11 0.0027598 1.60265e-13)
(3.16574e-11 0.00329049 1.19217e-13)
(-3.69691e-11 0.00276871 1.60271e-13)
(3.1766e-11 0.00330112 1.19223e-13)
(-3.70608e-11 0.00277763 1.60266e-13)
(3.18746e-11 0.00331176 1.19219e-13)
(-3.71526e-11 0.00278655 1.60271e-13)
(3.19832e-11 0.00332239 1.19224e-13)
(-3.72444e-11 0.00279546 1.60266e-13)
(3.20918e-11 0.00333302 1.19219e-13)
(-3.73364e-11 0.00280438 1.60271e-13)
(3.22003e-11 0.00334365 1.19225e-13)
(-3.74284e-11 0.0028133 1.60267e-13)
(3.23088e-11 0.00335428 1.1922e-13)
(-3.75206e-11 0.00282221 1.60272e-13)
(3.24173e-11 0.00336491 1.19226e-13)
(-3.76128e-11 0.00283113 1.60267e-13)
(3.25258e-11 0.00337555 1.19221e-13)
(-3.77051e-11 0.00284005 1.60272e-13)
(3.26343e-11 0.00338618 1.19227e-13)
(-3.77974e-11 0.00284896 1.60268e-13)
(3.27427e-11 0.00339681 1.19222e-13)
(-3.78899e-11 0.00285788 1.60273e-13)
(3.28511e-11 0.00340744 1.19228e-13)
(-3.79824e-11 0.0028668 1.60268e-13)
(3.29595e-11 0.00341807 1.19223e-13)
(-3.80751e-11 0.00287572 1.60273e-13)
(3.30679e-11 0.0034287 1.19228e-13)
(-3.81678e-11 0.00288463 1.60269e-13)
(3.31763e-11 0.00343933 1.19224e-13)
(-3.82605e-11 0.00289355 1.60273e-13)
(3.32846e-11 0.00344997 1.19229e-13)
(-3.83534e-11 0.00290247 1.60269e-13)
(3.3393e-11 0.0034606 1.19224e-13)
(-3.84463e-11 0.00291138 1.60274e-13)
(3.35013e-11 0.00347123 1.1923e-13)
(-3.85393e-11 0.0029203 1.60269e-13)
(3.36096e-11 0.00348186 1.19225e-13)
(-3.86324e-11 0.00292922 1.60274e-13)
(3.37179e-11 0.00349249 1.1923e-13)
(-3.87256e-11 0.00293813 1.6027e-13)
(3.38261e-11 0.00350312 1.19225e-13)
(-3.88188e-11 0.00294705 1.60274e-13)
(3.39344e-11 0.00351376 1.19231e-13)
(-3.89121e-11 0.00295597 1.6027e-13)
(3.40426e-11 0.00352439 1.19226e-13)
(-3.90055e-11 0.00296489 1.60274e-13)
(3.41508e-11 0.00353502 1.19231e-13)
(-3.9099e-11 0.0029738 1.6027e-13)
(3.4259e-11 0.00354565 1.19227e-13)
(-3.91925e-11 0.00298272 1.60275e-13)
(3.43672e-11 0.00355628 1.19232e-13)
(-3.92861e-11 0.00299164 1.6027e-13)
(3.44754e-11 0.00356691 1.19227e-13)
(-3.93798e-11 0.00300055 1.60274e-13)
(3.45835e-11 0.00357755 1.19232e-13)
(-3.94735e-11 0.00300947 1.60271e-13)
(3.46917e-11 0.00358818 1.19228e-13)
(-3.95673e-11 0.00301839 1.60275e-13)
(3.47998e-11 0.00359881 1.19233e-13)
(-3.96612e-11 0.0030273 1.60271e-13)
(3.49079e-11 0.00360944 1.19229e-13)
(-3.97552e-11 0.00303622 1.60275e-13)
(3.5016e-11 0.00362007 1.19234e-13)
(-3.98492e-11 0.00304514 1.60271e-13)
(3.51241e-11 0.0036307 1.1923e-13)
(-3.99433e-11 0.00305405 1.60275e-13)
(3.52321e-11 0.00364134 1.19234e-13)
(-4.00374e-11 0.00306297 1.60272e-13)
(3.53402e-11 0.00365197 1.1923e-13)
(-4.01316e-11 0.00307189 1.60276e-13)
(3.54482e-11 0.0036626 1.19235e-13)
(-4.02259e-11 0.00308081 1.60272e-13)
(3.55562e-11 0.00367323 1.19231e-13)
(-4.03202e-11 0.00308972 1.60276e-13)
(3.56642e-11 0.00368386 1.19235e-13)
(-4.04147e-11 0.00309864 1.60272e-13)
(3.57722e-11 0.00369449 1.19231e-13)
(-4.05091e-11 0.00310756 1.60276e-13)
(3.58802e-11 0.00370513 1.19236e-13)
(-4.06037e-11 0.00311647 1.60272e-13)
(3.59881e-11 0.00371576 1.19232e-13)
(-4.06983e-11 0.00312539 1.60276e-13)
(3.60961e-11 0.00372639 1.19237e-13)
(-4.07929e-11 0.00313431 1.60273e-13)
(3.6204e-11 0.00373702 1.19233e-13)
(-4.08876e-11 0.00314322 1.60277e-13)
(3.63119e-11 0.00374765 1.19237e-13)
(-4.09824e-11 0.00315214 1.60273e-13)
(3.64198e-11 0.00375828 1.19233e-13)
(-4.10773e-11 0.00316106 1.60277e-13)
(3.65277e-11 0.00376892 1.19237e-13)
(-4.11722e-11 0.00316997 1.60274e-13)
(3.66356e-11 0.00377955 1.19234e-13)
(-4.12671e-11 0.00317889 1.60277e-13)
(3.67434e-11 0.00379018 1.19238e-13)
(-4.13622e-11 0.00318781 1.60274e-13)
(3.68513e-11 0.00380081 1.19234e-13)
(-4.14572e-11 0.00319673 1.60277e-13)
(3.69591e-11 0.00381144 1.19239e-13)
(-4.15524e-11 0.00320564 1.60274e-13)
(3.70669e-11 0.00382207 1.19235e-13)
(-4.16476e-11 0.00321456 1.60278e-13)
(3.71747e-11 0.0038327 1.1924e-13)
(-4.17428e-11 0.00322348 1.60275e-13)
(3.72825e-11 0.00384334 1.19236e-13)
(-4.18381e-11 0.00323239 1.60278e-13)
(3.73903e-11 0.00385397 1.1924e-13)
(-4.19335e-11 0.00324131 1.60274e-13)
(3.74981e-11 0.0038646 1.19236e-13)
(-4.20289e-11 0.00325023 1.60278e-13)
(3.76059e-11 0.00387523 1.1924e-13)
(-4.21244e-11 0.00325914 1.60274e-13)
(3.77136e-11 0.00388586 1.19236e-13)
(-4.22199e-11 0.00326806 1.60278e-13)
(3.78213e-11 0.00389649 1.1924e-13)
(-4.23155e-11 0.00327698 1.60275e-13)
(3.79291e-11 0.00390713 1.19237e-13)
(-4.24112e-11 0.00328589 1.60279e-13)
(3.80368e-11 0.00391776 1.19241e-13)
(-4.25068e-11 0.00329481 1.60275e-13)
(3.81445e-11 0.00392839 1.19237e-13)
(-4.26026e-11 0.00330373 1.60278e-13)
(3.82521e-11 0.00393902 1.19241e-13)
(-4.26984e-11 0.00331265 1.60275e-13)
(3.83598e-11 0.00394965 1.19238e-13)
(-4.27942e-11 0.00332156 1.60278e-13)
(3.84675e-11 0.00396028 1.19242e-13)
(-4.28901e-11 0.00333048 1.60276e-13)
(3.85751e-11 0.00397092 1.19239e-13)
(-4.29861e-11 0.0033394 1.60279e-13)
(3.86828e-11 0.00398155 1.19242e-13)
(-4.30821e-11 0.00334831 1.60276e-13)
(3.87904e-11 0.00399218 1.19239e-13)
(-4.31781e-11 0.00335723 1.60279e-13)
(3.8898e-11 0.00400281 1.19242e-13)
(-4.32743e-11 0.00336615 1.60275e-13)
(3.90056e-11 0.00401344 1.19239e-13)
(-4.33704e-11 0.00337506 1.60279e-13)
(3.91132e-11 0.00402407 1.19242e-13)
(-4.34666e-11 0.00338398 1.60276e-13)
(3.92208e-11 0.00403471 1.19239e-13)
(-4.35629e-11 0.0033929 1.60279e-13)
(3.93284e-11 0.00404534 1.19243e-13)
(-4.36592e-11 0.00340181 1.60276e-13)
(3.94359e-11 0.00405597 1.1924e-13)
(-4.37555e-11 0.00341073 1.60279e-13)
(3.95435e-11 0.0040666 1.19243e-13)
(-4.38519e-11 0.00341965 1.60276e-13)
(3.9651e-11 0.00407723 1.19241e-13)
(-4.39483e-11 0.00342857 1.6028e-13)
(3.97585e-11 0.00408786 1.19245e-13)
(-4.40448e-11 0.00343748 1.60277e-13)
(3.98661e-11 0.0040985 1.19242e-13)
(-4.41414e-11 0.0034464 1.6028e-13)
(3.99736e-11 0.00410913 1.19245e-13)
(-4.4238e-11 0.00345532 1.60277e-13)