/*--------------------------------*- C++ -*----------------------------------*\
| =========                 |                                                 |
| \\      /  F ield         | OpenFOAM: The Open Source CFD Toolbox           |
|  \\    /   O peration     | Version:  2206                                  |
|   \\  /    A nd           | Website:  www.openfoam.com                      |
|    \\/     M anipulation  |                                                 |
\*---------------------------------------------------------------------------*/
FoamFile
{
    version     2.0;
    format      ascii;
    arch        "LSB;label=32;scalar=64";
    class       surfaceScalarField;
    location    "1";
    object      phi;
}
// * * * * * * * * * * * * * * * * * * * * * * * * * * * * * * * * * * * * * //

dimensions      [0 3 -1 0 0 0 0];

oriented        oriented;

internalField   nonuniform List<scalar> 
65994
(
1.24586e-23
2.4152e-24
9.19237e-24
3.26647e-24
6.17956e-24
3.0127e-24
3.49417e-24
2.68513e-24
1.24757e-24
2.24639e-24
1.24756e-24
1.49613e-24
9.19469e-25
2.05029e-24
2.71295e-24
1.18263e-24
3.88004e-24
-2.04059e-26
3.88789e-24
-4.69558e-25
2.6953e-24
7.77993e-25
1.48059e-24
-5.62739e-25
1.82297e-24
2.36856e-24
1.89034e-25
5.51315e-24
-1.57892e-24
5.65496e-24
-1.573e-24
2.68865e-24
-7.95015e-25
2.14031e-24
-2.70287e-24
2.5528e-24
1.9566e-24
3.86506e-26
8.02654e-24
-2.59991e-24
8.29287e-24
-2.48343e-24
2.57159e-24
-3.27846e-24
2.78676e-24
-5.49206e-24
3.30371e-24
1.43683e-24
-6.03336e-27
1.13348e-23
-3.46355e-24
1.1749e-23
-3.28649e-24
2.39339e-24
-6.56494e-24
3.4105e-24
-8.90173e-24
4.04228e-24
8.05845e-25
-9.77189e-27
1.53875e-23
-4.24137e-24
1.59812e-23
-4.02307e-24
2.17554e-24
-1.0588e-23
4.02587e-24
-1.29284e-23
4.77086e-24
6.00802e-26
-1.45445e-26
2.01723e-23
-5.01132e-24
2.09773e-23
-4.75231e-24
1.916e-24
-1.53403e-23
4.64274e-24
-1.75705e-23
5.50312e-24
-7.99176e-25
-1.42993e-26
2.56893e-23
-5.77527e-24
2.67379e-23
-5.47753e-24
1.61799e-24
-2.08179e-23
5.25589e-24
-2.28275e-23
6.2269e-24
-1.77177e-24
-2.14425e-26
3.19374e-23
-6.54462e-24
3.32609e-23
-6.20538e-24
1.27855e-24
-2.70233e-23
5.87361e-24
-2.87007e-23
6.96043e-24
-2.85824e-24
-2.00571e-26
3.89183e-23
-7.30835e-24
4.05495e-23
-6.93083e-24
9.01283e-25
-3.39541e-23
6.48975e-24
-3.51912e-23
7.69041e-24
-4.05964e-24
-2.37422e-26
4.66318e-23
-8.07767e-24
4.86028e-23
-7.66008e-24
4.83251e-25
-4.16142e-23
7.10924e-24
-4.22992e-23
8.42575e-24
-5.37478e-24
-2.21857e-26
5.50805e-23
-8.84306e-24
5.74244e-23
-8.38716e-24
2.79239e-26
-5.00013e-23
7.72502e-24
-5.0025e-23
9.15413e-24
-6.80471e-24
-2.762e-26
6.4262e-23
-9.61432e-24
6.70109e-23
-9.11755e-24
-4.69017e-25
-5.91189e-23
8.34449e-24
-5.83681e-23
9.88964e-24
-8.34833e-24
-2.5564e-26
7.41782e-23
-1.03791e-23
7.73654e-23
-9.84418e-24
-1.00308e-24
-6.89631e-23
8.95998e-24
-6.73272e-23
1.0619e-23
-1.00068e-23
-2.70711e-26
8.48249e-23
-1.11443e-23
8.84828e-23
-1.05703e-23
-1.57703e-24
-7.95335e-23
9.57309e-24
-7.69049e-23
1.13469e-23
-1.17833e-23
-3.42886e-26
9.61991e-23
-1.19169e-23
1.00359e-22
-1.1302e-23
-2.19657e-24
-9.08354e-23
1.01976e-23
-8.70978e-23
1.20838e-23
-1.36665e-23
-2.97891e-26
1.0832e-22
-1.268e-23
1.13016e-22
-1.20264e-23
-2.84528e-24
-1.02862e-22
1.08127e-23
-9.79105e-23
1.28141e-23
-1.56678e-23
-3.55827e-26
1.21169e-22
-1.34528e-23
1.26433e-22
-1.27588e-23
-3.539e-24
-1.15621e-22
1.14279e-23
-1.09339e-22
1.35431e-23
-1.77838e-23
-3.76771e-26
1.3475e-22
-1.42186e-23
1.40614e-22
-1.34852e-23
-4.27268e-24
-1.29106e-22
1.20464e-23
-1.21385e-22
1.42773e-23
-2.00143e-23
-3.70679e-26
1.49064e-22
-1.49845e-23
1.55561e-22
-1.42126e-23
-5.04469e-24
-1.43318e-22
1.26631e-23
-1.34049e-22
1.5007e-23
-2.23588e-23
-4.16874e-26
1.64113e-22
-1.57554e-23
1.71275e-22
-1.49427e-23
-5.85754e-24
-1.58261e-22
1.32824e-23
-1.47331e-22
1.57418e-23
-2.4818e-23
-4.15686e-26
1.79896e-22
-1.65229e-23
1.87756e-22
-1.56713e-23
-6.70891e-24
-1.73932e-22
1.39e-23
-1.61231e-22
1.64734e-23
-2.73915e-23
-4.46821e-26
1.96414e-22
-1.72929e-23
2.05005e-22
-1.64013e-23
-7.60061e-24
-1.90334e-22
1.45181e-23
-1.75749e-22
1.72065e-23
-3.00796e-23
-4.52626e-26
2.13666e-22
-1.80599e-23
2.23019e-22
-1.71293e-23
-8.53131e-24
-2.07463e-22
1.51344e-23
-1.90883e-22
1.7936e-23
-3.28812e-23
-4.91882e-26
2.31651e-22
-1.88292e-23
2.41799e-22
-1.78582e-23
-9.50223e-24
-2.25321e-22
1.57527e-23
-2.06636e-22
1.86694e-23
-3.57979e-23
-4.97773e-26
2.50371e-22
-1.95966e-23
2.61346e-22
-1.85865e-23
-1.05123e-23
-2.43908e-22
1.63705e-23
-2.23007e-22
1.94012e-23
-3.88288e-23
-5.26496e-26
2.69824e-22
-2.03664e-23
2.8166e-22
-1.93163e-23
-1.15625e-23
-2.63224e-22
1.6989e-23
-2.39995e-22
2.01346e-23
-4.19744e-23
-5.34662e-26
2.90012e-22
-2.11343e-23
3.02741e-22
-2.0045e-23
-1.26518e-23
-2.83269e-22
1.76061e-23
-2.57602e-22
2.08654e-23
-4.5234e-23
-5.70828e-26
3.10935e-22
-2.19043e-23
3.24588e-22
-2.07747e-23
-1.37814e-23
-3.04044e-22
1.82246e-23
-2.75826e-22
2.15989e-23
-4.86083e-23
-5.77628e-26
3.32591e-22
-2.2672e-23
3.47202e-22
-2.15033e-23
-1.49501e-23
-3.25547e-22
1.88421e-23
-2.94669e-22
2.23305e-23
-5.20969e-23
-6.02504e-26
3.54982e-22
-2.34409e-23
3.70582e-22
-2.22324e-23
-1.61587e-23
-3.47779e-22
1.94594e-23
-3.14128e-22
2.30626e-23
-5.57e-23
-6.1469e-26
3.78106e-22
-2.42079e-23
3.94728e-22
-2.29602e-23
-1.74066e-23
-3.7074e-22
2.00761e-23
-3.34204e-22
2.37927e-23
-5.94165e-23
-6.44109e-26
4.01963e-22
-2.49761e-23
4.19641e-22
-2.36883e-23
-1.86941e-23
-3.94428e-22
2.06938e-23
-3.54898e-22
2.45253e-23
-6.32479e-23
-6.54719e-26
4.26554e-22
-2.57435e-23
4.45319e-22
-2.44166e-23
-2.0021e-23
-4.18844e-22
2.13114e-23
-3.76209e-22
2.5257e-23
-6.71936e-23
-6.80287e-26
4.51879e-22
-2.65126e-23
4.71763e-22
-2.51458e-23
-2.13878e-23
-4.4399e-22
2.19295e-23
-3.98139e-22
2.59899e-23
-7.1254e-23
-6.91794e-26
4.77938e-22
-2.72805e-23
4.98975e-22
-2.58744e-23
-2.27939e-23
-4.69865e-22
2.25469e-23
-4.20685e-22
2.67212e-23
-7.54282e-23
-7.21688e-26
5.04732e-22
-2.80499e-23
5.26952e-22
-2.66038e-23
-2.424e-23
-4.96469e-22
2.3165e-23
-4.43851e-22
2.74541e-23
-7.97175e-23
-7.35558e-26
5.32259e-22
-2.88183e-23
5.55697e-22
-2.73328e-23
-2.57257e-23
-5.23801e-22
2.37829e-23
-4.67634e-22
2.81861e-23
-8.4121e-23
-7.5976e-26
5.60521e-22
-2.95875e-23
5.85208e-22
-2.80621e-23
-2.72512e-23
-5.51863e-22
2.44006e-23
-4.92034e-22
2.89185e-23
-8.86391e-23
-7.71964e-26
5.89517e-22
-3.03549e-23
6.15486e-22
-2.87903e-23
-2.8816e-23
-5.80654e-22
2.50175e-23
-5.17052e-22
2.96491e-23
-9.32708e-23
-8.02333e-26
6.19246e-22
-3.11237e-23
6.46529e-22
-2.95191e-23
-3.04207e-23
-6.10173e-22
2.56355e-23
-5.42688e-22
3.0382e-23
-9.80175e-23
-8.13434e-26
6.49709e-22
-3.18916e-23
6.78339e-22
-3.02477e-23
-3.20647e-23
-6.40421e-22
2.62534e-23
-5.68941e-22
3.1114e-23
-1.02878e-22
-8.39199e-26
6.80907e-22
-3.2661e-23
7.10916e-22
-3.09772e-23
-3.37487e-23
-6.71398e-22
2.68715e-23
-5.95813e-22
3.18469e-23
-1.07854e-22
-8.51996e-26
7.12839e-22
-3.34291e-23
7.4426e-22
-3.1706e-23
-3.54721e-23
-7.03104e-22
2.74887e-23
-6.23302e-22
3.25779e-23
-1.12944e-22
-8.84097e-26
7.45504e-22
-3.41987e-23
7.7837e-22
-3.24355e-23
-3.72356e-23
-7.35539e-22
2.81071e-23
-6.51409e-22
3.33111e-23
-1.18148e-22
-8.91272e-26
7.78905e-22
-3.49661e-23
8.13247e-22
-3.31638e-23
-3.90381e-23
-7.68703e-22
2.87237e-23
-6.80134e-22
3.4042e-23
-1.23467e-22
-9.11271e-26
8.13037e-22
-3.57334e-23
8.48889e-22
-3.38915e-23
-4.08803e-23
-8.02595e-22
2.93406e-23
-7.09474e-22
3.4773e-23
-1.28899e-22
-9.33763e-26
8.47904e-22
-3.65011e-23
8.85296e-22
-3.46194e-23
-4.27618e-23
-8.37214e-22
2.9959e-23
-7.39433e-22
3.5506e-23
-1.34445e-22
-9.4794e-26
8.83505e-22
-3.72697e-23
9.22471e-22
-3.53486e-23
-4.46828e-23
-8.72563e-22
3.05766e-23
-7.70009e-22
3.62379e-23
-1.40106e-22
-9.67869e-26
9.1984e-22
-3.80379e-23
9.60413e-22
-3.60772e-23
-4.66432e-23
-9.0864e-22
3.11934e-23
-8.01202e-22
3.69688e-23
-1.45881e-22
-9.89884e-26
9.56908e-22
-3.88056e-23
9.9912e-22
-3.68053e-23
-4.86434e-23
-9.45445e-22
3.18114e-23
-8.33013e-22
3.77016e-23
-1.51771e-22
-1.00083e-25
9.9471e-22
-3.95733e-23
1.03859e-21
-3.75337e-23
-5.06828e-23
-9.82979e-22
3.24289e-23
-8.65442e-22
3.84329e-23
-1.57775e-22
-1.02978e-25
1.03325e-21
-4.03426e-23
1.07883e-21
-3.82629e-23
-5.27621e-23
-1.02124e-21
3.30469e-23
-8.98489e-22
3.91657e-23
-1.63894e-22
-1.04504e-25
1.07252e-21
-4.1111e-23
1.11984e-21
-3.8992e-23
-5.48812e-23
-1.06023e-21
3.36647e-23
-9.32153e-22
3.98977e-23
-1.70127e-22
-1.06858e-25
1.11252e-21
-4.18801e-23
1.16161e-21
-3.97213e-23
-5.704e-23
-1.09996e-21
3.42824e-23
-9.66436e-22
4.063e-23
-1.76474e-22
-1.08352e-25
1.15326e-21
-4.2648e-23
1.20415e-21
-4.04497e-23
-5.92382e-23
-1.1404e-21
3.48998e-23
-1.00133e-21
4.13614e-23
-1.82935e-22
-1.10645e-25
1.19473e-21
-4.34162e-23
1.24746e-21
-4.11782e-23
-6.14759e-23
-1.18158e-21
3.55173e-23
-1.03685e-21
4.20935e-23
-1.89511e-22
-1.12421e-25
1.23694e-21
-4.41845e-23
1.29153e-21
-4.1907e-23
-6.37534e-23
-1.22349e-21
3.61352e-23
-1.07299e-21
4.28256e-23
-1.96202e-22
-1.1461e-25
1.27988e-21
-4.49533e-23
1.33637e-21
-4.26361e-23
-6.60705e-23
-1.26613e-21
3.67528e-23
-1.10974e-21
4.35577e-23
-2.03007e-22
-1.16548e-25
1.32355e-21
-4.57219e-23
1.38197e-21
-4.33651e-23
-6.84276e-23
-1.30949e-21
3.73706e-23
-1.14711e-21
4.42897e-23
-2.09926e-22
-1.18647e-25
1.36796e-21
-4.64904e-23
1.42835e-21
-4.40939e-23
-7.0824e-23
-1.35359e-21
3.79882e-23
-1.1851e-21
4.50218e-23
-2.1696e-22
-1.20659e-25
1.4131e-21
-4.7259e-23
1.47548e-21
-4.4823e-23
-7.32604e-23
-1.39841e-21
3.86059e-23
-1.22371e-21
4.57538e-23
-2.24108e-22
-1.22713e-25
1.45898e-21
-4.80275e-23
1.52339e-21
-4.55518e-23
-7.57364e-23
-1.44396e-21
3.92235e-23
-1.26293e-21
4.64858e-23
-2.31371e-22
-1.24234e-25
1.50559e-21
-4.87952e-23
1.57206e-21
-4.628e-23
-7.82516e-23
-1.49024e-21
3.9841e-23
-1.30277e-21
4.72176e-23
-2.38747e-22
-1.26124e-25
1.55293e-21
-4.9563e-23
1.6215e-21
-4.70082e-23
-8.08061e-23
-1.53725e-21
4.04584e-23
-1.34323e-21
4.79495e-23
-2.46238e-22
-1.27996e-25
1.60101e-21
-5.03312e-23
1.6717e-21
-4.77369e-23
-8.34004e-23
-1.58499e-21
4.10762e-23
-1.3843e-21
4.86816e-23
-2.53843e-22
-1.30006e-25
1.64982e-21
-5.10997e-23
1.72267e-21
-4.84658e-23
-8.60341e-23
-1.63345e-21
4.16937e-23
-1.426e-21
4.94134e-23
-2.61563e-22
-1.32165e-25
1.69937e-21
-5.18684e-23
1.77441e-21
-4.91948e-23
-8.8708e-23
-1.68265e-21
4.23116e-23
-1.46831e-21
5.01457e-23
-2.69397e-22
-1.33921e-25
1.74965e-21
-5.26366e-23
1.82691e-21
-4.99233e-23
-9.14209e-23
-1.73257e-21
4.2929e-23
-1.51124e-21
5.08774e-23
-2.77346e-22
-1.36281e-25
1.80066e-21
-5.34055e-23
1.88018e-21
-5.06526e-23
-9.41742e-23
-1.78322e-21
4.35468e-23
-1.55479e-21
5.16095e-23
-2.85409e-22
-1.38282e-25
1.85241e-21
-5.4174e-23
1.93421e-21
-5.13815e-23
-9.69669e-23
-1.8346e-21
4.41643e-23
-1.59895e-21
5.23414e-23
-2.93586e-22
-1.40157e-25
1.90489e-21
-5.49422e-23
1.98901e-21
-5.21102e-23
-9.97994e-23
-1.88671e-21
4.47821e-23
-1.64373e-21
5.30736e-23
-3.01877e-22
-1.41791e-25
1.9581e-21
-5.571e-23
2.04458e-21
-5.28384e-23
-1.02671e-22
-1.93955e-21
4.53995e-23
-1.68913e-21
5.38053e-23
-3.10284e-22
-1.44006e-25
2.01205e-21
-5.64787e-23
2.10092e-21
-5.35675e-23
-1.05582e-22
-1.99312e-21
4.60174e-23
-1.73515e-21
5.45375e-23
-3.18804e-22
-1.46018e-25
2.06674e-21
-5.72473e-23
2.15802e-21
-5.42964e-23
-1.08534e-22
-2.04742e-21
4.66348e-23
-1.78179e-21
5.52694e-23
-3.2744e-22
-1.48145e-25
2.12215e-21
-5.80159e-23
2.21589e-21
-5.50255e-23
-1.11525e-22
-2.10244e-21
4.72526e-23
-1.82904e-21
5.60015e-23
-3.36189e-22
-1.50124e-25
2.1783e-21
-5.87843e-23
2.27452e-21
-5.57541e-23
-1.14555e-22
-2.1582e-21
4.78702e-23
-1.87691e-21
5.67334e-23
-3.45053e-22
-1.52134e-25
2.23519e-21
-5.95529e-23
2.33392e-21
-5.64832e-23
-1.17626e-22
-2.21468e-21
4.84877e-23
-1.9254e-21
5.74653e-23
-3.54032e-22
-1.54215e-25
2.29281e-21
-6.03212e-23
2.39409e-21
-5.72118e-23
-1.20736e-22
-2.27189e-21
4.91057e-23
-1.9745e-21
5.81974e-23
-3.63123e-22
-1.55144e-25
2.35116e-21
-6.1088e-23
2.45502e-21
-5.79392e-23
-1.23884e-22
-2.32983e-21
4.97228e-23
-2.02423e-21
5.89295e-23
-3.7233e-22
-1.57537e-25
2.41025e-21
-6.1857e-23
2.51672e-21
-5.86686e-23
-1.27072e-22
-2.3885e-21
5.03407e-23
-2.07457e-21
5.96615e-23
-3.8165e-22
-1.59015e-25
2.47007e-21
-6.26246e-23
2.57918e-21
-5.93967e-23
-1.303e-22
-2.4479e-21
5.09583e-23
-2.12552e-21
6.03935e-23
-3.91085e-22
-1.61026e-25
2.53062e-21
-6.33929e-23
2.64242e-21
-6.01254e-23
-1.33567e-22
-2.50802e-21
5.15758e-23
-2.1771e-21
6.11253e-23
-4.00634e-22
-1.63182e-25
2.59191e-21
-6.41616e-23
2.70641e-21
-6.08545e-23
-1.36875e-22
-2.56887e-21
5.21938e-23
-2.22929e-21
6.18576e-23
-4.10297e-22
-1.64907e-25
2.65394e-21
-6.49297e-23
2.77118e-21
-6.15829e-23
-1.40221e-22
-2.63046e-21
5.2811e-23
-2.28211e-21
6.25892e-23
-4.20076e-22
-1.67438e-25
2.71669e-21
-6.56989e-23
2.83671e-21
-6.23124e-23
-1.43608e-22
-2.69277e-21
5.34289e-23
-2.33553e-21
6.33214e-23
-4.29969e-22
-1.69333e-25
2.78018e-21
-6.64673e-23
2.90301e-21
-6.30412e-23
-1.47034e-22
-2.75581e-21
5.40463e-23
-2.38958e-21
6.40532e-23
-4.39977e-22
-1.71376e-25
2.84441e-21
-6.72357e-23
2.97007e-21
-6.377e-23
-1.505e-22
-2.81958e-21
5.46644e-23
-2.44425e-21
6.47857e-23
-4.50097e-22
-1.72701e-25
2.90936e-21
-6.80032e-23
3.0379e-21
-6.4498e-23
-1.54005e-22
-2.88408e-21
5.52815e-23
-2.49953e-21
6.55171e-23
-4.60333e-22
-1.75186e-25
2.97506e-21
-6.87721e-23
3.1065e-21
-6.52273e-23
-1.5755e-22
-2.94931e-21
5.58995e-23
-2.55543e-21
6.62494e-23
-4.70683e-22
-1.7707e-25
3.04148e-21
-6.95406e-23
3.17586e-21
-6.59561e-23
-1.61135e-22
-3.01526e-21
5.65167e-23
-2.61194e-21
6.6981e-23
-4.81149e-22
-1.79501e-25
3.10864e-21
-7.03095e-23
3.24599e-21
-6.66854e-23
-1.6476e-22
-3.08195e-21
5.71348e-23
-2.66908e-21
6.77135e-23
-4.91727e-22
-1.81032e-25
3.17654e-21
-7.10774e-23
3.31689e-21
-6.74137e-23
-1.68424e-22
-3.14936e-21
5.7752e-23
-2.72683e-21
6.84449e-23
-5.02422e-22
-1.83594e-25
3.24516e-21
-7.18466e-23
3.38855e-21
-6.81432e-23
-1.72128e-22
-3.21751e-21
5.83697e-23
-2.7852e-21
6.9177e-23
-5.1323e-22
-1.85518e-25
3.31453e-21
-7.26148e-23
3.46098e-21
-6.88717e-23
-1.75872e-22
-3.28638e-21
5.89877e-23
-2.84419e-21
6.9909e-23
-5.24152e-22
-1.86639e-25
3.38462e-21
-7.33818e-23
3.53417e-21
-6.95993e-23
-1.79654e-22
-3.35598e-21
5.96051e-23
-2.9038e-21
7.06416e-23
-5.35188e-22
-1.88553e-25
3.45545e-21
-7.41504e-23
3.60814e-21
-7.03284e-23
-1.83476e-22
-3.42631e-21
6.02226e-23
-2.96402e-21
7.13732e-23
-5.46339e-22
-1.90513e-25
3.52701e-21
-7.49185e-23
3.68286e-21
-7.1057e-23
-1.87338e-22
-3.49736e-21
6.08405e-23
-3.02486e-21
7.21054e-23
-5.57603e-22
-1.92408e-25
3.59931e-21
-7.56869e-23
3.75836e-21
-7.17857e-23
-1.91239e-22
-3.56915e-21
6.14577e-23
-3.08632e-21
7.28367e-23
-5.68984e-22
-1.95044e-25
3.67234e-21
-7.6456e-23
3.83462e-21
-7.25151e-23
-1.95181e-22
-3.64166e-21
6.2076e-23
-3.14839e-21
7.35697e-23
-5.80477e-22
-1.96281e-25
3.74611e-21
-7.72238e-23
3.91165e-21
-7.32433e-23
-1.99161e-22
-3.71491e-21
6.26929e-23
-3.21109e-21
7.43007e-23
-5.92086e-22
-1.99382e-25
3.82061e-21
-7.79935e-23
3.98944e-21
-7.39733e-23
-2.03183e-22
-3.78888e-21
6.33108e-23
-3.2744e-21
7.5033e-23
-6.0381e-22
-2.01267e-25
3.89584e-21
-7.87619e-23
4.068e-21
-7.4702e-23
-2.07244e-22
-3.86358e-21
6.39286e-23
-3.33833e-21
7.57646e-23
-6.15647e-22
-2.02811e-25
3.97181e-21
-7.95294e-23
4.14732e-21
-7.543e-23
-2.11343e-22
-3.93901e-21
6.45463e-23
-3.40288e-21
7.64977e-23
-6.27598e-22
-2.04486e-25
4.04851e-21
-8.02979e-23
4.22742e-21
-7.6159e-23
-2.15483e-22
-4.01517e-21
6.51634e-23
-3.46804e-21
7.72286e-23
-6.39666e-22
-2.07185e-25
4.12594e-21
-8.10669e-23
4.30827e-21
-7.68883e-23
-2.19663e-22
-4.09206e-21
6.57814e-23
-3.53382e-21
7.7961e-23
-6.51846e-22
-2.09226e-25
4.20411e-21
-8.18356e-23
4.3899e-21
-7.76172e-23
-2.23883e-22
-4.16968e-21
6.63988e-23
-3.60023e-21
7.8692e-23
-6.64142e-22
-2.11617e-25
4.28301e-21
-8.26043e-23
4.47229e-21
-7.83462e-23
-2.28142e-22
-4.24802e-21
6.70161e-23
-3.66724e-21
7.94248e-23
-6.76554e-22
-2.14235e-25
4.36265e-21
-8.3374e-23
4.55545e-21
-7.90763e-23
-2.32443e-22
-4.3271e-21
6.76338e-23
-3.73488e-21
8.01554e-23
-6.89079e-22
-2.16604e-25
4.44302e-21
-8.41424e-23
4.63937e-21
-7.98048e-23
-2.36782e-22
-4.4069e-21
6.82497e-23
-3.80314e-21
8.08864e-23
-7.0172e-22
-2.19933e-25
4.52412e-21
-8.49107e-23
4.72406e-21
-8.05328e-23
-2.4116e-22
-4.48744e-21
6.888e-23
-3.87199e-21
8.16233e-23
-7.14443e-22
-2.05813e-25
4.60599e-21
-8.5658e-23
4.80954e-21
-8.12423e-23
-2.4555e-22
-4.56868e-21
6.94785e-23
-3.94149e-21
8.23525e-23
-7.27335e-22
-2.294e-25
4.68854e-21
-8.64588e-23
4.89574e-21
-8.20034e-23
-2.5003e-22
-4.65068e-21
7.01063e-23
-4.01159e-21
8.30875e-23
-7.40313e-22
-2.18866e-25
4.77185e-21
-8.72095e-23
4.98274e-21
-8.27154e-23
-2.54524e-22
-4.7334e-21
7.07235e-23
-4.08231e-21
8.38192e-23
-7.53404e-22
-2.21098e-25
4.85589e-21
-8.79774e-23
5.07049e-21
-8.34432e-23
-2.59056e-22
-4.81684e-21
7.13407e-23
-4.15365e-21
8.45495e-23
-7.66612e-22
-2.24043e-25
4.94066e-21
-8.87464e-23
5.15902e-21
-8.41722e-23
-2.63628e-22
-4.90101e-21
7.19588e-23
-4.22561e-21
8.52829e-23
-7.79932e-22
-2.25772e-25
5.02617e-21
-8.95152e-23
5.24831e-21
-8.49016e-23
-2.68241e-22
-4.98591e-21
7.25755e-23
-4.29819e-21
8.60132e-23
-7.9337e-22
-2.29241e-25
5.11242e-21
-9.02852e-23
5.33837e-21
-8.56316e-23
-2.72894e-22
-5.07155e-21
7.31936e-23
-4.37138e-21
8.67458e-23
-8.06921e-22
-2.30948e-25
5.19939e-21
-9.10534e-23
5.42919e-21
-8.63602e-23
-2.77586e-22
-5.15791e-21
7.3811e-23
-4.44519e-21
8.7477e-23
-8.20587e-22
-2.33059e-25
5.28711e-21
-9.18216e-23
5.52078e-21
-8.70887e-23
-2.82318e-22
-5.245e-21
7.4429e-23
-4.51962e-21
8.82103e-23
-8.34367e-22
-2.34368e-25
5.37555e-21
-9.25896e-23
5.61313e-21
-8.78174e-23
-2.8709e-22
-5.33281e-21
7.50461e-23
-4.59466e-21
8.89413e-23
-8.48262e-22
-2.36982e-25
5.46473e-21
-9.33585e-23
5.70626e-21
-8.85466e-23
-2.91902e-22
-5.42136e-21
7.56642e-23
-4.67033e-21
8.96738e-23
-8.6227e-22
-2.38702e-25
5.55464e-21
-9.41268e-23
5.80015e-21
-8.92752e-23
-2.96753e-22
-5.51063e-21
7.62812e-23
-4.74661e-21
9.0405e-23
-8.76395e-22
-2.41532e-25
5.64529e-21
-9.48961e-23
5.8948e-21
-9.00048e-23
-3.01645e-22
-5.60064e-21
7.68996e-23
-4.82351e-21
9.11379e-23
-8.90632e-22
-2.42752e-25
5.73667e-21
-9.56638e-23
5.99022e-21
-9.0733e-23
-3.06575e-22
-5.69137e-21
7.75165e-23
-4.90102e-21
9.1869e-23
-9.04986e-22
-2.45614e-25
5.82878e-21
-9.64332e-23
6.08641e-21
-9.14626e-23
-3.11546e-22
-5.78284e-21
7.81344e-23
-4.97916e-21
9.26012e-23
-9.19453e-22
-2.47459e-25
5.92163e-21
-9.72015e-23
6.18336e-21
-9.21912e-23
-3.16556e-22
-5.87503e-21
7.87522e-23
-5.05791e-21
9.33331e-23
-9.34034e-22
-2.48823e-25
6.01522e-21
-9.79688e-23
6.28108e-21
-9.29191e-23
-3.21605e-22
-5.96795e-21
7.93698e-23
-5.13728e-21
9.40659e-23
-9.48729e-22
-2.50523e-25
6.10953e-21
-9.87372e-23
6.37957e-21
-9.3648e-23
-3.26695e-22
-6.06159e-21
7.99873e-23
-5.21727e-21
9.47974e-23
-9.63539e-22
-2.52546e-25
6.20458e-21
-9.95053e-23
6.47882e-21
-9.43766e-23
-3.31823e-22
-6.15597e-21
8.06052e-23
-5.29787e-21
9.55296e-23
-9.78462e-22
-2.5432e-25
6.30037e-21
-1.00274e-22
6.57884e-21
-9.51051e-23
-3.36991e-22
-6.25108e-21
8.12223e-23
-5.37909e-21
9.62611e-23
-9.93501e-22
-2.56853e-25
6.39688e-21
-1.01043e-22
6.67963e-21
-9.58344e-23
-3.42199e-22
-6.34691e-21
8.18405e-23
-5.46093e-21
9.69937e-23
-1.00865e-21
-2.58193e-25
6.49414e-21
-1.0181e-22
6.78118e-21
-9.65627e-23
-3.47446e-22
-6.44347e-21
8.24576e-23
-5.54339e-21
9.7725e-23
-1.02392e-21
-2.60972e-25
6.59212e-21
-1.0258e-22
6.8835e-21
-9.72922e-23
-3.52734e-22
-6.54076e-21
8.30755e-23
-5.62647e-21
9.84573e-23
-1.0393e-21
-2.62752e-25
6.69084e-21
-1.03348e-22
6.98658e-21
-9.80209e-23
-3.58061e-22
-6.63879e-21
8.36928e-23
-5.71016e-21
9.91889e-23
-1.0548e-21
-2.6489e-25
6.7903e-21
-1.04116e-22
7.09043e-21
-9.87497e-23
-3.63428e-22
-6.73754e-21
8.43109e-23
-5.79447e-21
9.99216e-23
-1.07041e-21
-2.66175e-25
6.89048e-21
-1.04884e-22
7.19505e-21
-9.94778e-23
-3.68833e-22
-6.83701e-21
8.49282e-23
-5.8794e-21
1.00653e-22
-1.08614e-21
-2.68606e-25
6.99141e-21
-1.05653e-22
7.30044e-21
-1.00207e-22
-3.74279e-22
-6.93722e-21
8.55461e-23
-5.96494e-21
1.01385e-22
-1.10197e-21
-2.70478e-25
7.09306e-21
-1.06421e-22
7.40659e-21
-1.00936e-22
-3.79765e-22
-7.03816e-21
8.61634e-23
-6.05111e-21
1.02117e-22
-1.11793e-21
-2.72856e-25
7.19545e-21
-1.0719e-22
7.5135e-21
-1.01665e-22
-3.8529e-22
-7.13982e-21
8.67814e-23
-6.13789e-21
1.02849e-22
-1.134e-21
-2.74466e-25
7.29857e-21
-1.07958e-22
7.62119e-21
-1.02393e-22
-3.90855e-22
-7.24221e-21
8.73987e-23
-6.22529e-21
1.03581e-22
-1.15018e-21
-2.76776e-25
7.40243e-21
-1.08727e-22
7.72964e-21
-1.03123e-22
-3.9646e-22
-7.34534e-21
8.80163e-23
-6.31331e-21
1.04313e-22
-1.16648e-21
-2.78728e-25
7.50702e-21
-1.09495e-22
7.83885e-21
-1.03851e-22
-4.02104e-22
-7.44919e-21
8.86344e-23
-6.40194e-21
1.05045e-22
-1.18289e-21
-2.79854e-25
7.61235e-21
-1.10262e-22
7.94884e-21
-1.04579e-22
-4.07787e-22
-7.55377e-21
8.92517e-23
-6.49119e-21
1.05777e-22
-1.19941e-21
-2.82074e-25
7.71841e-21
-1.11031e-22
8.05958e-21
-1.05308e-22
-4.1351e-22
-7.65908e-21
8.98695e-23
-6.58106e-21
1.06509e-22
-1.21605e-21
-2.83708e-25
7.8252e-21
-1.11799e-22
8.1711e-21
-1.06036e-22
-4.19272e-22
-7.76511e-21
9.04872e-23
-6.67155e-21
1.07241e-22
-1.23281e-21
-2.85592e-25
7.93273e-21
-1.12567e-22
8.28338e-21
-1.06765e-22
-4.25074e-22
-7.87188e-21
9.11046e-23
-6.76265e-21
1.07973e-22
-1.24967e-21
-2.87867e-25
8.04099e-21
-1.13336e-22
8.39643e-21
-1.07494e-22
-4.30915e-22
-7.97937e-21
9.17225e-23
-6.85437e-21
1.08705e-22
-1.26666e-21
-2.89509e-25
8.14999e-21
-1.14104e-22
8.51024e-21
-1.08223e-22
-4.36796e-22
-8.08759e-21
9.23398e-23
-6.94671e-21
1.09437e-22
-1.28375e-21
-2.91966e-25
8.25971e-21
-1.14873e-22
8.62482e-21
-1.08952e-22
-4.42717e-22
-8.19655e-21
9.29577e-23
-7.03967e-21
1.10169e-22
-1.30097e-21
-2.93796e-25
8.37018e-21
-1.15641e-22
8.74017e-21
-1.09681e-22
-4.48678e-22
-8.30623e-21
9.35751e-23
-7.13325e-21
1.10901e-22
-1.31829e-21
-2.95947e-25
8.48137e-21
-1.1641e-22
8.85629e-21
-1.10409e-22
-4.54678e-22
-8.41664e-21
9.4193e-23
-7.22744e-21
1.11633e-22
-1.33573e-21
-2.97346e-25
8.59331e-21
-1.17177e-22
8.97317e-21
-1.11138e-22
-4.60717e-22
-8.52777e-21
9.48104e-23
-7.32225e-21
1.12365e-22
-1.35329e-21
-2.99657e-25
8.70597e-21
-1.17946e-22
9.09081e-21
-1.11867e-22
-4.66797e-22
-8.63964e-21
9.54282e-23
-7.41768e-21
1.13097e-22
-1.37096e-21
-3.01587e-25
8.81937e-21
-1.18714e-22
9.20923e-21
-1.12596e-22
-4.72916e-22
-8.75224e-21
9.60456e-23
-7.51372e-21
1.13829e-22
-1.38874e-21
-3.03853e-25
8.9335e-21
-1.19483e-22
9.3284e-21
-1.13325e-22
-4.79075e-22
-8.86556e-21
9.66635e-23
-7.61039e-21
1.14561e-22
-1.40664e-21
-3.05435e-25
9.04837e-21
-1.20251e-22
9.44835e-21
-1.14053e-22
-4.85273e-22
-8.97961e-21
9.72809e-23
-7.70767e-21
1.15293e-22
-1.42465e-21
-3.07795e-25
9.16397e-21
-1.2102e-22
9.56906e-21
-1.14782e-22
-4.91511e-22
-9.0944e-21
9.78986e-23
-7.80557e-21
1.16025e-22
-1.44278e-21
-3.09703e-25
9.2803e-21
-1.21788e-22
9.69054e-21
-1.15511e-22
-4.97789e-22
-9.20991e-21
9.85162e-23
-7.90408e-21
1.16757e-22
-1.46102e-21
-3.11493e-25
9.39737e-21
-1.22556e-22
9.81278e-21
-1.16239e-22
-5.04106e-22
-9.32615e-21
9.9134e-23
-8.00322e-21
1.17489e-22
-1.47937e-21
-3.13082e-25
9.51517e-21
-1.23324e-22
9.9358e-21
-1.16968e-22
-5.10462e-22
-9.44311e-21
9.97515e-23
-8.10297e-21
1.18221e-22
-1.49784e-21
-3.15225e-25
9.63371e-21
-1.24093e-22
1.00596e-20
-1.17697e-22
-5.16858e-22
-9.56081e-21
1.00369e-22
-8.20334e-21
1.18953e-22
-1.51643e-21
-3.17063e-25
9.75298e-21
-1.24861e-22
1.01841e-20
-1.18425e-22
-5.23294e-22
-9.67924e-21
1.00987e-22
-8.30433e-21
1.19685e-22
-1.53512e-21
-3.19357e-25
9.87298e-21
-1.2563e-22
1.03094e-20
-1.19154e-22
-5.2977e-22
-9.79839e-21
1.01605e-22
-8.40593e-21
1.20417e-22
-1.55394e-21
-3.20979e-25
9.99372e-21
-1.26398e-22
1.04355e-20
-1.19883e-22
-5.36284e-22
-9.91827e-21
1.02222e-22
-8.50815e-21
1.21149e-22
-1.57286e-21
-3.23283e-25
1.01152e-20
-1.27167e-22
1.05623e-20
-1.20612e-22
-5.42839e-22
-1.00389e-20
1.0284e-22
-8.61099e-21
1.21881e-22
-1.59191e-21
-3.25255e-25
1.02374e-20
-1.27935e-22
1.069e-20
-1.21341e-22
-5.49434e-22
-1.01602e-20
1.03457e-22
-8.71445e-21
1.22613e-22
-1.61106e-21
-3.27109e-25
1.03603e-20
-1.28703e-22
1.08183e-20
-1.22069e-22
-5.56068e-22
-1.02823e-20
1.04075e-22
-8.81852e-21
1.23345e-22
-1.63033e-21
-3.28891e-25
1.0484e-20
-1.29471e-22
1.09475e-20
-1.22798e-22
-5.62741e-22
-1.04051e-20
1.04692e-22
-8.92322e-21
1.24077e-22
-1.64972e-21
-3.31004e-25
1.06084e-20
-1.3024e-22
1.10774e-20
-1.23527e-22
-5.69454e-22
-1.05286e-20
1.0531e-22
-9.02853e-21
1.24809e-22
-1.66921e-21
-3.32997e-25
1.07336e-20
-1.31008e-22
1.12081e-20
-1.24256e-22
-5.76207e-22
-1.06529e-20
1.05928e-22
-9.13446e-21
1.25541e-22
-1.68883e-21
-3.3501e-25
1.08594e-20
-1.31777e-22
1.13395e-20
-1.24985e-22
-5.83e-22
-1.07779e-20
1.06545e-22
-9.241e-21
1.26273e-22
-1.70856e-21
-3.37098e-25
1.0986e-20
-1.32545e-22
1.14717e-20
-1.25713e-22
-5.89832e-22
-1.09036e-20
1.07163e-22
-9.34817e-21
1.27005e-22
-1.7284e-21
-3.38956e-25
1.11134e-20
-1.33314e-22
1.16047e-20
-1.26442e-22
-5.96704e-22
-1.103e-20
1.07781e-22
-9.45595e-21
1.27737e-22
-1.74836e-21
-3.40956e-25
1.12415e-20
-1.34082e-22
1.17384e-20
-1.27171e-22
-6.03615e-22
-1.11572e-20
1.08399e-22
-9.56434e-21
1.28469e-22
-1.76842e-21
-3.42172e-25
1.13703e-20
-1.34849e-22
1.18729e-20
-1.27899e-22
-6.10565e-22
-1.12851e-20
1.09016e-22
-9.67336e-21
1.29201e-22
-1.78861e-21
-3.44693e-25
1.14998e-20
-1.35618e-22
1.20082e-20
-1.28628e-22
-6.17556e-22
-1.14137e-20
1.09634e-22
-9.78299e-21
1.29933e-22
-1.80891e-21
-3.46125e-25
1.16301e-20
-1.36386e-22
1.21442e-20
-1.29356e-22
-6.24585e-22
-1.15431e-20
1.10251e-22
-9.89325e-21
1.30665e-22
-1.82932e-21
-3.48117e-25
1.17611e-20
-1.37154e-22
1.22811e-20
-1.30085e-22
-6.31655e-22
-1.16732e-20
1.10869e-22
-1.00041e-20
1.31397e-22
-1.84985e-21
-3.50128e-25
1.18929e-20
-1.37923e-22
1.24186e-20
-1.30814e-22
-6.38763e-22
-1.1804e-20
1.11487e-22
-1.01156e-20
1.32129e-22
-1.87049e-21
-3.52084e-25
1.20253e-20
-1.38691e-22
1.2557e-20
-1.31543e-22
-6.45912e-22
-1.19355e-20
1.12104e-22
-1.02277e-20
1.32861e-22
-1.89125e-21
-3.54261e-25
1.21586e-20
-1.3946e-22
1.26961e-20
-1.32272e-22
-6.531e-22
-1.20678e-20
1.12722e-22
-1.03404e-20
1.33593e-22
-1.91212e-21
-3.56164e-25
1.22925e-20
-1.40228e-22
1.28359e-20
-1.33e-22
-6.60328e-22
-1.22008e-20
1.13339e-22
-1.04538e-20
1.34325e-22
-1.93311e-21
-3.58116e-25
1.24272e-20
-1.40997e-22
1.29766e-20
-1.33729e-22
-6.67595e-22
-1.23345e-20
1.13957e-22
-1.05677e-20
1.35057e-22
-1.95421e-21
-3.59917e-25
1.25626e-20
-1.41765e-22
1.3118e-20
-1.34458e-22
-6.74902e-22
-1.2469e-20
1.14575e-22
-1.06823e-20
1.35789e-22
-1.97542e-21
-3.62026e-25
1.26988e-20
-1.42533e-22
1.32602e-20
-1.35187e-22
-6.82249e-22
-1.26042e-20
1.15192e-22
-1.07975e-20
1.36521e-22
-1.99675e-21
-3.639e-25
1.28356e-20
-1.43301e-22
1.34031e-20
-1.35915e-22
-6.89635e-22
-1.27401e-20
1.1581e-22
-1.09133e-20
1.37253e-22
-2.01819e-21
-3.661e-25
1.29733e-20
-1.4407e-22
1.35468e-20
-1.36644e-22
-6.97061e-22
-1.28767e-20
1.16428e-22
-1.10297e-20
1.37985e-22
-2.03975e-21
-3.67849e-25
1.31116e-20
-1.44838e-22
1.36913e-20
-1.37373e-22
-7.04526e-22
-1.30141e-20
1.17045e-22
-1.11468e-20
1.38717e-22
-2.06142e-21
-3.70029e-25
1.32507e-20
-1.45607e-22
1.38365e-20
-1.38102e-22
-7.12032e-22
-1.31522e-20
1.17663e-22
-1.12644e-20
1.39449e-22
-2.08321e-21
-3.71972e-25
1.33905e-20
-1.46375e-22
1.39825e-20
-1.38831e-22
-7.19576e-22
-1.3291e-20
1.18281e-22
-1.13827e-20
1.40181e-22
-2.10511e-21
-3.73758e-25
1.35311e-20
-1.47143e-22
1.41293e-20
-1.39559e-22
-7.27161e-22
-1.34306e-20
1.18898e-22
-1.15016e-20
1.40913e-22
-2.12712e-21
-3.75565e-25
1.36724e-20
-1.47912e-22
1.42768e-20
-1.40288e-22
-7.34784e-22
-1.35709e-20
1.19516e-22
-1.16211e-20
1.41645e-22
-2.14925e-21
-3.77605e-25
1.38144e-20
-1.4868e-22
1.44251e-20
-1.41017e-22
-7.42448e-22
-1.37119e-20
1.20134e-22
-1.17413e-20
1.42377e-22
-2.17149e-21
-3.79457e-25
1.39571e-20
-1.49448e-22
1.45742e-20
-1.41745e-22
-7.50151e-22
-1.38536e-20
1.20751e-22
-1.1862e-20
1.43109e-22
-2.19385e-21
-3.81635e-25
1.41006e-20
-1.50217e-22
1.4724e-20
-1.42474e-22
-7.57894e-22
-1.39961e-20
1.21369e-22
-1.19834e-20
1.43841e-22
-2.21632e-21
-3.83367e-25
1.42449e-20
-1.50985e-22
1.48746e-20
-1.43203e-22
-7.65676e-22
-1.41393e-20
1.21986e-22
-1.21054e-20
1.44573e-22
-2.23891e-21
-3.85581e-25
1.43898e-20
-1.51754e-22
1.5026e-20
-1.43932e-22
-7.73498e-22
-1.42832e-20
1.22604e-22
-1.2228e-20
1.45305e-22
-2.26161e-21
-3.87505e-25
1.45355e-20
-1.52522e-22
1.51781e-20
-1.4466e-22
-7.81359e-22
-1.44279e-20
1.23222e-22
-1.23512e-20
1.46037e-22
-2.28443e-21
-3.89444e-25
1.46819e-20
-1.5329e-22
1.5331e-20
-1.45389e-22
-7.89261e-22
-1.45733e-20
1.23839e-22
-1.2475e-20
1.46769e-22
-2.30736e-21
-3.9121e-25
1.48291e-20
-1.54058e-22
1.54847e-20
-1.46118e-22
-7.97201e-22
-1.47194e-20
1.24457e-22
-1.25995e-20
1.47501e-22
-2.3304e-21
-3.93347e-25
1.4977e-20
-1.54827e-22
1.56391e-20
-1.46847e-22
-8.05182e-22
-1.48663e-20
1.25075e-22
-1.27246e-20
1.48233e-22
-2.35356e-21
-3.95223e-25
1.51256e-20
-1.55595e-22
1.57943e-20
-1.47575e-22
-8.13202e-22
-1.50138e-20
1.25692e-22
-1.28503e-20
1.48965e-22
-2.37683e-21
-3.97331e-25
1.5275e-20
-1.56364e-22
1.59503e-20
-1.48304e-22
-8.21261e-22
-1.51621e-20
1.2631e-22
-1.29766e-20
1.49697e-22
-2.40022e-21
-3.99189e-25
1.54251e-20
-1.57132e-22
1.6107e-20
-1.49033e-22
-8.29361e-22
-1.53112e-20
1.26927e-22
-1.31035e-20
1.50429e-22
-2.42372e-21
-4.01195e-25
1.55759e-20
-1.579e-22
1.62645e-20
-1.49762e-22
-8.375e-22
-1.54609e-20
1.27545e-22
-1.3231e-20
1.51161e-22
-2.44734e-21
-4.0317e-25
1.57275e-20
-1.58669e-22
1.64228e-20
-1.50491e-22
-8.45678e-22
-1.56114e-20
1.28163e-22
-1.33592e-20
1.51893e-22
-2.47107e-21
-4.04812e-25
1.58798e-20
-1.59437e-22
1.65818e-20
-1.51219e-22
-8.53896e-22
-1.57626e-20
1.2878e-22
-1.3488e-20
1.52625e-22
-2.49491e-21
-4.06925e-25
1.60328e-20
-1.60205e-22
1.67416e-20
-1.51948e-22
-8.62154e-22
-1.59146e-20
1.29398e-22
-1.36174e-20
1.53357e-22
-2.51887e-21
-4.08718e-25
1.61866e-20
-1.60973e-22
1.69022e-20
-1.52676e-22
-8.70451e-22
-1.60673e-20
1.30016e-22
-1.37474e-20
1.54089e-22
-2.54294e-21
-4.10652e-25
1.63411e-20
-1.61742e-22
1.70635e-20
-1.53405e-22
-8.78787e-22
-1.62207e-20
1.30633e-22
-1.3878e-20