/*--------------------------------*- C++ -*----------------------------------*\
| =========                 |                                                 |
| \\      /  F ield         | OpenFOAM: The Open Source CFD Toolbox           |
|  \\    /   O peration     | Version:  2206                                  |
|   \\  /    A nd           | Website:  www.openfoam.com                      |
|    \\/     M anipulation  |                                                 |
\*---------------------------------------------------------------------------*/
FoamFile
{
    version     2.0;
    format      ascii;
    arch        "LSB;label=32;scalar=64";
    class       volScalarField;
    location    "4000";
    object      p;
}
// * * * * * * * * * * * * * * * * * * * * * * * * * * * * * * * * * * * * * //

dimensions      [0 2 -2 0 0 0 0];

internalField   nonuniform List<scalar> 
100
(
-7.21912322e-10
0.0390462809
0.0574289579
0.0750006632
0.0887919218
0.100269129
0.109847291
0.117932483
0.124818812
0.130732336
0.135848222
0.140303978
0.144208738
0.147650008
0.150698606
0.153412335
0.155838754
0.158017274
0.159980779
0.16175688
0.163368897
0.164836634
0.166176998
0.16740449
0.168531604
0.169569155
0.170526537
0.171411947
0.172232558
0.172994672
0.173703842
0.174364978
0.174982434
0.175560079
0.176101364
0.176609375
0.177086874
0.177536344
0.17796002
0.178359918
0.17873786
0.179095497
0.179434327
0.179755713
0.180060895
0.180351007
0.180627081
0.180890067
0.181140831
0.181380173
0.181608824
0.18182746
0.182036704
0.182237131
0.182429271
0.182613617
0.182790624
0.182960715
0.183124283
0.183281692
0.183433283
0.183579372
0.183720254
0.183856206
0.183987484
0.18411433
0.18423697
0.184355614
0.184470461
0.184581697
0.184689496
0.184794023
0.184895433
0.184993871
0.185089474
0.185182372
0.185272686
0.185360531
0.185446017
0.185529247
0.185610317
0.18568932
0.185766343
0.18584147
0.185914777
0.185986341
0.186056231
0.186124516
0.186191257
0.186256518
0.186320354
0.186382824
0.18644398
0.186503853
0.18656245
0.186619899
0.186676868
0.18673403
0.186786675
0.186817173
)
;

boundaryField
{
    left
    {
        type            wedge;
    }
    right
    {
        type            wedge;
    }
    outerWall
    {
        type            zeroGradient;
    }
    innerWall
    {
        type            zeroGradient;
    }
    frontAndBack
    {
        type            empty;
    }
}


// ************************************************************************* //
