/*--------------------------------*- C++ -*----------------------------------*\
| =========                 |                                                 |
| \\      /  F ield         | OpenFOAM: The Open Source CFD Toolbox           |
|  \\    /   O peration     | Version:  2206                                  |
|   \\  /    A nd           | Website:  www.openfoam.com                      |
|    \\/     M anipulation  |                                                 |
\*---------------------------------------------------------------------------*/
FoamFile
{
    version     2.0;
    format      ascii;
    arch        "LSB;label=32;scalar=64";
    class       surfaceScalarField;
    location    "4000";
    object      phi;
}
// * * * * * * * * * * * * * * * * * * * * * * * * * * * * * * * * * * * * * //

dimensions      [0 3 -1 0 0 0 0];

oriented        oriented;

internalField   nonuniform List<scalar> 
99
(
3.07637888e-10
5.91348452e-10
8.5425381e-10
1.09925103e-09
1.3286161e-09
1.54422985e-09
1.74764651e-09
1.94017834e-09
2.12293122e-09
2.29685936e-09
2.46277645e-09
2.62139905e-09
2.77334218e-09
2.91915856e-09
3.059323e-09
3.19427229e-09
3.32437942e-09
3.4499965e-09
3.57142056e-09
3.68894126e-09
3.80279736e-09
3.91323139e-09
4.02043653e-09
4.12461953e-09
4.22593732e-09
4.32456889e-09
4.42064149e-09
4.51431307e-09
4.60568639e-09
4.69490263e-09
4.78204393e-09
4.86723892e-09
4.95055199e-09
5.03210182e-09
5.11193736e-09
5.19017e-09
5.26683521e-09
5.34203857e-09
5.4158034e-09
5.48823145e-09
5.55933514e-09
5.62921323e-09
5.69786811e-09
5.76539699e-09
5.8317931e-09
5.89715247e-09
5.96145989e-09
6.02481127e-09
6.08718346e-09
6.14867258e-09
6.20924813e-09
6.26900687e-09
6.32791153e-09
6.38605965e-09
6.44340792e-09
6.50005456e-09
6.55595074e-09
6.61119558e-09
6.66573581e-09
6.71967028e-09
6.77294198e-09
6.82564984e-09
6.87773461e-09
6.92929325e-09
6.98026504e-09
7.03074576e-09
7.08067461e-09
7.13014364e-09
7.1790927e-09
7.22761119e-09
7.27564052e-09
7.32326557e-09
7.37042952e-09
7.4172142e-09
7.46356487e-09
7.50955885e-09
7.55514328e-09
7.60039271e-09
7.64525649e-09
7.68980468e-09
7.73398867e-09
7.7778758e-09
7.82142076e-09
7.86468482e-09
7.90762701e-09
7.95030344e-09
7.9926795e-09
8.0348023e-09
8.07664451e-09
8.11824567e-09
8.15958647e-09
8.20069636e-09
8.24156424e-09
8.28221142e-09
8.3226341e-09
8.36284623e-09
8.40284969e-09
8.4426525e-09
8.48226183e-09
)
;

boundaryField
{
    left
    {
        type            wedge;
        value           nonuniform List<scalar> 
100
(
1.34098169e-05
1.23668805e-05
1.14600349e-05
1.06793626e-05
9.99802001e-06
9.39853049e-06
8.86693655e-06
8.39238025e-06
7.96620831e-06
7.5814319e-06
7.23234636e-06
6.91424896e-06
6.62322838e-06
6.3560057e-06
6.10981108e-06
5.88228826e-06
5.67142131e-06
5.47547433e-06
5.29294444e-06
5.12252491e-06
4.96307328e-06
4.81358629e-06
4.67318022e-06
4.54107273e-06
4.41656872e-06
4.29904932e-06
4.18796095e-06
4.08280688e-06
3.98314091e-06
3.88856036e-06
3.79870088e-06
3.71323271e-06
3.63185597e-06
3.55429737e-06
3.48030797e-06
3.40965988e-06
3.34214412e-06
3.27756924e-06
3.21575893e-06
3.15655091e-06
3.09979516e-06
3.04535346e-06
2.99309764e-06
2.94290873e-06
2.89467667e-06
2.84829898e-06
2.80368006e-06
2.76073122e-06
2.71936951e-06
2.67951727e-06
2.6411022e-06
2.60405647e-06
2.56831631e-06
2.53382223e-06
2.5005182e-06
2.46835137e-06
2.43727234e-06
2.40723444e-06
2.37819348e-06
2.35010811e-06
2.32293912e-06
2.29664929e-06
2.27120374e-06
2.24656925e-06
2.22271443e-06
2.19960936e-06
2.17722591e-06
2.15553728e-06
2.13451783e-06
2.11414348e-06
2.09439119e-06
2.0752389e-06
2.05666586e-06
2.03865217e-06
2.02117871e-06
2.00422751e-06
1.9877813e-06
1.97182343e-06
1.95633826e-06
1.9413107e-06
1.92672621e-06
1.91257108e-06
1.89883211e-06
1.88549649e-06
1.8725522e-06
1.85998759e-06
1.84779137e-06
1.83595294e-06
1.82446194e-06
1.81330852e-06
1.80248306e-06
1.79197653e-06
1.78178012e-06
1.77188524e-06
1.76228384e-06
1.75296799e-06
1.74392986e-06
1.73516197e-06
1.72665681e-06
1.71840589e-06
)
;
    }
    right
    {
        type            wedge;
        value           nonuniform List<scalar> 
100
(
-1.34101245e-05
-1.23671642e-05
-1.14602978e-05
-1.06796076e-05
-9.99824937e-06
-9.39874611e-06
-8.86713997e-06
-8.39257278e-06
-7.96639106e-06
-7.58160583e-06
-7.23251228e-06
-6.91440758e-06
-6.62338032e-06
-6.35615151e-06
-6.10995124e-06
-5.88242321e-06
-5.67155142e-06
-5.47559995e-06
-5.29306587e-06
-5.12264243e-06
-4.96318714e-06
-4.81369672e-06
-4.67328743e-06
-4.5411769e-06
-4.41667004e-06
-4.29914794e-06
-4.18805702e-06
-4.08290054e-06
-3.98323228e-06
-3.88864956e-06
-3.79878803e-06
-3.71331789e-06
-3.63193929e-06
-3.55437891e-06
-3.48038781e-06
-3.40973811e-06
-3.34222079e-06
-3.27764443e-06
-3.2158327e-06
-3.15662333e-06
-3.09986628e-06
-3.04542332e-06
-2.9931663e-06
-2.94297624e-06
-2.89474308e-06
-2.84836432e-06
-2.80374438e-06
-2.76079456e-06
-2.7194319e-06
-2.67957874e-06
-2.64116279e-06
-2.60411621e-06
-2.56837523e-06
-2.53388036e-06
-2.50057556e-06
-2.46840799e-06
-2.43732826e-06
-2.40728966e-06
-2.37824804e-06
-2.35016202e-06
-2.32299241e-06
-2.29670198e-06
-2.27125585e-06
-2.24662079e-06
-2.22276542e-06
-2.19965982e-06
-2.17727586e-06
-2.15558673e-06
-2.1345668e-06
-2.11419198e-06
-2.09443924e-06
-2.07528651e-06
-2.05671304e-06
-2.03869893e-06
-2.02122507e-06
-2.00427349e-06
-1.9878269e-06
-1.97186866e-06
-1.95638314e-06
-1.94135524e-06
-1.92677041e-06
-1.91261496e-06
-1.89887567e-06
-1.88553974e-06
-1.87259516e-06
-1.86003026e-06
-1.84783376e-06
-1.83599505e-06
-1.82450379e-06
-1.81335012e-06
-1.80252441e-06
-1.79201764e-06
-1.781821e-06
-1.77192589e-06
-1.76232427e-06
-1.75300821e-06
-1.74396987e-06
-1.73520177e-06
-1.72669642e-06
-1.71844531e-06
)
;
    }
    outerWall
    {
        type            calculated;
        value           uniform 8.52168395e-09;
    }
    innerWall
    {
        type            calculated;
        value           uniform 0;
    }
    frontAndBack
    {
        type            empty;
        value           nonuniform List<scalar> 0();
    }
}


// ************************************************************************* //
