/*--------------------------------*- C++ -*----------------------------------*\
| =========                 |                                                 |
| \\      /  F ield         | OpenFOAM: The Open Source CFD Toolbox           |
|  \\    /   O peration     | Version:  2206                                  |
|   \\  /    A nd           | Website:  www.openfoam.com                      |
|    \\/     M anipulation  |                                                 |
\*---------------------------------------------------------------------------*/
FoamFile
{
    version     2.0;
    format      ascii;
    arch        "LSB;label=32;scalar=64";
    class       volVectorField;
    location    "4000";
    object      U;
}
// * * * * * * * * * * * * * * * * * * * * * * * * * * * * * * * * * * * * * //

dimensions      [0 1 -1 0 0 0 0];

internalField   nonuniform List<vector> 
100
(
(0.0121929431 0.596005535 0)
(-0.00387951882 0.549651743 0)
(0.000924071119 0.509346567 0)
(-0.000136862246 0.474649225 0)
(9.46693612e-05 0.444366639 0)
(7.80355204e-05 0.417722049 0)
(9.58346336e-05 0.394095109 0)
(0.000106280782 0.373003234 0)
(0.00011509306 0.354061825 0)
(0.000122172159 0.336960259 7.3480954e-20)
(0.000127904705 0.32144499 -7.75677737e-20)
(0.000132535649 0.307307002 0)
(0.000136265535 0.29437246 0)
(0.000139253166 0.282495624 8.70989662e-20)
(0.000141625719 0.271553384 0)
(0.000143486018 0.261441033 0)
(0.000144917799 0.252068954 0)
(0.000145989739 0.243359994 0)
(0.000146758497 0.235247373 0)
(0.000147271116 0.227672998 0)
(0.000147566823 0.220586091 0)
(0.000147678518 0.213942078 0)
(0.000147633879 0.207701665 0)
(0.000147456329 0.201830081 0)
(0.000147165721 0.196296447 0)
(0.000146778974 0.191073243 0)
(0.000146310513 0.186135865 0)
(0.00014577272 0.181462247 0)
(0.000145176204 0.177032547 0)
(0.000144530113 0.172828867 0)
(0.000143842316 0.168835024 0)
(0.000143119638 0.165036352 0)
(0.000142367965 0.161419521 0)
(0.000141592418 0.157972397 0)
(0.000140797423 0.154683904 0)
(0.000139986847 0.151543913 0)
(0.000139164035 0.148543147 0)
(0.000138331916 0.145673087 0)
(0.000137493022 0.142925899 0)
(0.000136649578 0.140294368 0)
(0.000135803506 0.137771835 0)
(0.000134956496 0.135352148 0)
(0.000134109998 0.133029611 0)
(0.000133265299 0.130798945 0)
(0.000132423494 0.128655249 0)
(0.000131585553 0.126593968 0)
(0.000130752297 0.124610862 0)
(0.000129924453 0.122701981 0)
(0.000129102633 0.120863638 0)
(0.000128287376 0.119092389 0)
(0.000127479128 0.117385014 0)
(0.000126678282 0.115738496 0)
(0.000125885157 0.114150011 0)
(0.000125100032 0.112616905 0)
(0.000124323127 0.11113669 0)
(0.000123554631 0.109707023 0)
(0.000122794686 0.108325701 0)
(0.000122043413 0.10699065 0)
(0.000121300898 0.105699913 0)
(0.000120567202 0.104451646 0)
(0.000119842362 0.103244105 0)
(0.000119126398 0.102075644 0)
(0.000118419318 0.100944705 0)
(0.000117721105 0.0998498134 0)
(0.000117031733 0.0987895727 0)
(0.000116351161 0.0977626591 0)
(0.000115679354 0.0967678167 7.36398473e-20)
(0.000115016244 0.0958038531 0)
(0.00011436177 0.0948696359 0)
(0.000113715855 0.0939640886 0)
(0.000113078434 0.093086187 0)
(0.000112449414 0.0922349566 7.04122556e-20)
(0.000111828712 0.0914094691 0)
(0.000111216234 0.0906088401 0)
(0.000110611897 0.089832226 0)
(0.000110015596 0.0890788224 -6.79764213e-20)
(0.000109427236 0.0883478609 0)
(0.000108846714 0.0876386079 0)
(0.00010827394 0.0869503623 0)
(0.0001077088 0.0862824538 0)
(0.000107151197 0.0856342409 0)
(0.000106601022 0.0850051099 0)
(0.000106058187 0.084394473 0)
(0.000105522576 0.0838017669 -6.34827735e-20)
(0.000104994092 0.083226452 0)
(0.000104472627 0.0826680104 0)
(0.000103958112 0.0821259456 0)
(0.000103450444 0.0815997807 6.14150398e-20)
(0.000102949442 0.081089058 0)
(0.000102454624 0.0805933376 0)
(0.000101965977 0.0801121967 0)
(0.000101487311 0.0796452289 5.94587661e-20)
(0.00010102721 0.079192043 0)
(0.00010056654 0.0787522623 0)
(9.99724126e-05 0.0783255236 0)
(9.91202034e-05 0.0779114747 5.76075906e-20)
(9.90512559e-05 0.0775097724 0)
(0.000103512237 0.0771200793 0)
(0.000110879904 0.0767420619 0)
(8.06495291e-05 0.0763753476 0)
)
;

boundaryField
{
    left
    {
        type            wedge;
    }
    right
    {
        type            wedge;
    }
    outerWall
    {
        type            navierSlip;
        value           uniform (0 0.0762041727 0);
        slipLength      uniform 1;
        wallVelocity    uniform (0 0 0);
    }
    innerWall
    {
        type            rotatingWallVelocity;
        origin          (0 0 0);
        axis            (0 0 1);
        omega           constant 12.566;
        value           uniform (0 0.628204307 -0);
    }
    frontAndBack
    {
        type            empty;
    }
}


// ************************************************************************* //
