/*--------------------------------*- C++ -*----------------------------------*\
| =========                 |                                                 |
| \\      /  F ield         | OpenFOAM: The Open Source CFD Toolbox           |
|  \\    /   O peration     | Version:  2206                                  |
|   \\  /    A nd           | Website:  www.openfoam.com                      |
|    \\/     M anipulation  |                                                 |
\*---------------------------------------------------------------------------*/
FoamFile
{
    version     2.0;
    format      ascii;
    arch        "LSB;label=32;scalar=64";
    class       surfaceScalarField;
    location    "50";
    object      phi;
}
// * * * * * * * * * * * * * * * * * * * * * * * * * * * * * * * * * * * * * //

dimensions      [0 3 -1 0 0 0 0];

oriented        oriented;

internalField   nonuniform List<scalar> 
94990
(
-8.31818e-25
1.5919e-23
-9.55714e-25
3.32965e-24
-3.30019e-24
-1.17315e-24
-2.9677e-24
1.93658e-24
-5.33445e-24
6.108e-25
-6.9251e-24
3.18354e-24
-9.51508e-24
1.7653e-24
-1.18234e-23
3.28968e-24
-1.54226e-23
3.09031e-24
-1.87997e-23
4.05082e-24
-2.33153e-23
4.13652e-24
-2.76269e-23
4.82425e-24
-3.26643e-23
4.73875e-24
-3.78638e-23
5.60892e-24
-4.37898e-23
5.69108e-24
-4.98385e-23
6.3822e-24
-5.64037e-23
6.37977e-24
-6.3351e-23
7.22274e-24
-7.07195e-23
7.21939e-24
-7.8419e-23
7.9306e-24
-8.66195e-23
8.07797e-24
-9.51033e-23
8.68054e-24
-1.04096e-22
8.89026e-24
-1.13386e-22
9.45951e-24
-1.23163e-22
9.68918e-24
-1.33258e-22
1.02431e-23
-1.4382e-22
1.04872e-23
-1.54717e-22
1.10272e-23
-1.66067e-22
1.12853e-23
-1.77763e-22
1.18119e-23
-1.89904e-22
1.2083e-23
-2.02398e-22
1.25976e-23
-2.15329e-22
1.28803e-23
-2.2862e-22
1.33842e-23
-2.42342e-22
1.36772e-23
-2.56429e-22
1.41716e-23
-2.70943e-22
1.44736e-23
-2.85826e-22
1.49599e-23
-3.01132e-22
1.52696e-23
-3.16811e-22
1.57488e-23
-3.32909e-22
1.60654e-23
-3.49383e-22
1.65382e-23
-3.66274e-22
1.6861e-23
-3.83543e-22
1.73282e-23
-4.01227e-22
1.76563e-23
-4.19291e-22
1.81186e-23
-4.37767e-22
1.84515e-23
-4.56627e-22
1.89094e-23
-4.75896e-22
1.92466e-23
-4.9555e-22
1.97006e-23
-5.15612e-22
2.00416e-23
-5.36061e-22
2.0492e-23
-5.56916e-22
2.08364e-23
-5.7816e-22
2.12836e-23
-5.99809e-22
2.16312e-23
-6.21846e-22
2.20755e-23
-6.44289e-22
2.24259e-23
-6.67121e-22
2.28676e-23
-6.90357e-22
2.32206e-23
-7.13983e-22
2.36598e-23
-7.38013e-22
2.40152e-23
-7.62434e-22
2.44522e-23
-7.87257e-22
2.48098e-23
-8.12472e-22
2.52448e-23
-8.38089e-22
2.56044e-23
-8.64098e-22
2.60375e-23
-8.90509e-22
2.63989e-23
-9.17313e-22
2.68302e-23
-9.44517e-22
2.71934e-23
-9.72115e-22
2.76231e-23
-1.00011e-21
2.79879e-23
-1.0285e-21
2.84161e-23
-1.0573e-21
2.87823e-23
-1.08648e-21
2.92091e-23
-1.11607e-21
2.95768e-23
-1.14605e-21
3.00023e-23
-1.17643e-21
3.03712e-23
-1.2072e-21
3.07954e-23
-1.23838e-21
3.11656e-23
-1.26995e-21
3.15887e-23
-1.30191e-21
3.196e-23
-1.33428e-21
3.2382e-23
-1.36704e-21
3.27543e-23
-1.40019e-21
3.31754e-23
-1.43375e-21
3.35487e-23
-1.4677e-21
3.39688e-23
-1.50205e-21
3.4343e-23
-1.53679e-21
3.47622e-23
-1.57194e-21
3.51374e-23
-1.60748e-21
3.55557e-23
-1.64341e-21
3.59317e-23
-1.67975e-21
3.63492e-23
-1.71648e-21
3.6726e-23
-1.7536e-21
3.71428e-23
-1.79113e-21
3.75203e-23
-1.82905e-21
3.79364e-23
-1.86737e-21
3.83146e-23
-1.90608e-21
3.873e-23
-1.9452e-21
3.91089e-23
-1.98471e-21
3.95237e-23
-2.02461e-21
3.99032e-23
-2.06492e-21
4.03173e-23
-2.10562e-21
4.06975e-23
-2.14672e-21
4.1111e-23
-2.18821e-21
4.14918e-23
-2.2301e-21
4.19047e-23
-2.27239e-21
4.2286e-23
-2.31508e-21
4.26985e-23
-2.35816e-21
4.30803e-23
-2.40164e-21
4.34922e-23
-2.44552e-21
4.38746e-23
-2.48979e-21
4.4286e-23
-2.53446e-21
4.46688e-23
-2.57953e-21
4.50797e-23
-2.62499e-21
4.54631e-23
-2.67086e-21
4.58735e-23
-2.71711e-21
4.62574e-23
-2.76377e-21
4.66673e-23
-2.81082e-21
4.70516e-23
-2.85827e-21
4.74612e-23
-2.90612e-21
4.78459e-23
-2.95436e-21
4.8255e-23
-3.003e-21
4.86401e-23
-3.05204e-21
4.90488e-23
-3.10148e-21
4.94344e-23
-3.15131e-21
4.98427e-23
-3.20154e-21
5.02287e-23
-3.25217e-21
5.06365e-23
-3.30319e-21
5.10229e-23
-3.35461e-21
5.14304e-23
-3.40643e-21
5.18172e-23
-3.45864e-21
5.22243e-23
-3.51125e-21
5.26114e-23
-3.56426e-21
5.30182e-23
-3.61766e-21
5.34057e-23
-3.67147e-21
5.38121e-23
-3.72567e-21
5.41999e-23
-3.78026e-21
5.4606e-23
-3.83526e-21
5.49942e-23
-3.89065e-21
5.53999e-23
-3.94643e-21
5.57884e-23
-4.00262e-21
5.61938e-23
-4.0592e-21
5.65826e-23
-4.11618e-21
5.69877e-23
-4.17355e-21
5.73769e-23
-4.23133e-21
5.77817e-23
-4.28949e-21
5.81711e-23
-4.34806e-21
5.85756e-23
-4.40703e-21
5.89654e-23
-4.46639e-21
5.93695e-23
-4.52614e-21
5.97596e-23
-4.5863e-21
6.01635e-23
-4.64685e-21
6.05539e-23
-4.7078e-21
6.09574e-23
-4.76914e-21
6.13481e-23
-4.83089e-21
6.17514e-23
-4.89303e-21
6.21423e-23
-4.95556e-21
6.25453e-23
-5.0185e-21
6.29366e-23
-5.08183e-21
6.33393e-23
-5.14556e-21
6.37308e-23
-5.20968e-21
6.41333e-23
-5.2742e-21
6.4525e-23
-5.33912e-21
6.49272e-23
-5.40444e-21
6.53193e-23
-5.47015e-21
6.57212e-23
-5.53626e-21
6.61135e-23
-5.60277e-21
6.65152e-23
-5.66967e-21
6.69078e-23
-5.73698e-21
6.73092e-23
-5.80467e-21
6.7702e-23
-5.87277e-21
6.81032e-23
-5.94126e-21
6.84962e-23
-6.01015e-21
6.88972e-23
-6.07944e-21
6.92905e-23
-6.14912e-21
6.96911e-23
-6.2192e-21
7.00847e-23
-6.28968e-21
7.04851e-23
-6.36055e-21
7.08789e-23
-6.43182e-21
7.12791e-23
-6.50349e-21
7.16731e-23
-6.57556e-21
7.20731e-23
-6.64802e-21
7.24674e-23
-6.72088e-21
7.28671e-23
-6.79414e-21
7.32616e-23
-6.86779e-21
7.36611e-23
-6.94184e-21
7.40558e-23
-7.01629e-21
7.44551e-23
-7.09113e-21
7.48501e-23
-7.16638e-21
7.52492e-23
-7.24201e-21
7.56443e-23
-7.31805e-21
7.60432e-23
-7.39448e-21
7.64385e-23
-7.47131e-21
7.68372e-23
-7.54854e-21
7.72328e-23
-7.62617e-21
7.76312e-23
-7.70418e-21
7.8027e-23
-7.7826e-21
7.84252e-23
-7.86142e-21
7.88212e-23
-7.94063e-21
7.92192e-23
-8.02024e-21
7.96154e-23
-8.10025e-21
8.00133e-23
-8.18065e-21
8.04097e-23
-8.26145e-21
8.08073e-23
-8.34265e-21
8.12039e-23
-8.42424e-21
8.16013e-23
-8.50623e-21
8.19981e-23
-8.58862e-21
8.23953e-23
-8.67141e-21
8.27923e-23
-8.75459e-21
8.31894e-23
-8.83817e-21
8.35866e-23
-8.92215e-21
8.39834e-23
-9.00652e-21
8.43808e-23
-9.09129e-21
8.47774e-23
-9.17646e-21
8.5175e-23
-9.26202e-21
8.55714e-23
-9.34798e-21
8.59693e-23
-9.43434e-21
8.63655e-23
-9.5211e-21
8.67635e-23
-9.60825e-21
8.71595e-23
-9.6958e-21
8.75577e-23
-9.78375e-21
8.79535e-23
-9.87209e-21
8.83519e-23
-9.96084e-21
8.87476e-23
-1.005e-20
8.91462e-23
-1.01395e-20
8.95416e-23
-1.02294e-20
8.99404e-23
-1.03198e-20
9.03356e-23
-1.04105e-20
9.07346e-23
-1.05016e-20
9.11297e-23
-1.05931e-20
9.15288e-23
-1.06851e-20
9.19237e-23
-1.07774e-20
9.23231e-23
-1.08701e-20
9.27178e-23
-1.09632e-20
9.31173e-23
-1.10567e-20
9.35118e-23
-1.11506e-20
9.39115e-23
-1.12449e-20
9.43058e-23
-1.13396e-20
9.47057e-23
-1.14347e-20
9.50999e-23
-1.15302e-20
9.55e-23
-1.16261e-20
9.58939e-23
-1.17224e-20
9.62942e-23
-1.1819e-20
9.6688e-23
-1.19161e-20
9.70884e-23
-1.20136e-20
9.7482e-23
-1.21115e-20
9.78826e-23
-1.22097e-20
9.82761e-23
-1.23084e-20
9.86769e-23
-1.24075e-20
9.90701e-23
-1.25069e-20
9.94711e-23
-1.26068e-20
9.98642e-23
-1.2707e-20
1.00265e-22
-1.28077e-20
1.00658e-22
-1.29087e-20
1.0106e-22
-1.30102e-20
1.01452e-22
-1.3112e-20
1.01854e-22
-1.32143e-20
1.02246e-22
-1.33169e-20
1.02648e-22
-1.34199e-20
1.0304e-22
-1.35234e-20
1.03442e-22
-1.36272e-20
1.03834e-22
-1.37314e-20
1.04236e-22
-1.38361e-20
1.04628e-22
-1.39411e-20
1.05031e-22
-1.40465e-20
1.05423e-22
-1.41523e-20
1.05825e-22
-1.42585e-20
1.06217e-22
-1.43651e-20
1.06619e-22
-1.44721e-20
1.07011e-22
-1.45795e-20
1.07413e-22
-1.46873e-20
1.07805e-22
-1.47955e-20
1.08208e-22
-1.49041e-20
1.08599e-22
-1.50131e-20
1.09002e-22
-1.51225e-20
1.09393e-22
-1.52323e-20
1.09796e-22
-1.53425e-20
1.10187e-22
-1.5453e-20
1.1059e-22
-1.5564e-20
1.10981e-22
-1.56754e-20
1.11384e-22
-1.57872e-20
1.11775e-22
-1.58993e-20
1.12179e-22
-1.60119e-20
1.12569e-22
-1.61248e-20
1.12973e-22
-1.62382e-20
1.13363e-22
-1.6352e-20
1.13767e-22
-1.64661e-20
1.14157e-22
-1.65807e-20
1.14561e-22
-1.66956e-20
1.14951e-22
-1.68109e-20
1.15356e-22
-1.69267e-20
1.15745e-22
-1.70428e-20
1.1615e-22
-1.71594e-20
1.16539e-22
-1.72763e-20
1.16944e-22
-1.73936e-20
1.17333e-22
-1.75113e-20
1.17738e-22
-1.76295e-20
1.18127e-22
-1.7748e-20
1.18533e-22
-1.78669e-20
1.18921e-22
-1.79862e-20
1.19327e-22
-1.81059e-20
1.19715e-22
-1.8226e-20
1.20121e-22
-1.83465e-20
1.2051e-22
-1.84674e-20
1.20915e-22
-1.85887e-20
1.21304e-22
-1.87104e-20
1.21709e-22
-1.88325e-20
1.22098e-22
-1.8955e-20
1.22504e-22
-1.90779e-20
1.22892e-22
-1.92012e-20
1.23298e-22
-1.93249e-20
1.23686e-22
-1.94489e-20
1.24092e-22
-1.95734e-20
1.2448e-22
-1.96983e-20
1.24886e-22
-1.98236e-20
1.25274e-22
-1.99492e-20
1.25681e-22
-2.00753e-20
1.26068e-22
-2.02017e-20
1.26475e-22
-2.03286e-20
1.26862e-22
-2.04559e-20
1.27269e-22
-2.05835e-20
1.27656e-22
-2.07116e-20
1.28063e-22
-2.084e-20
1.2845e-22
-2.09688e-20
1.28858e-22
-2.10981e-20
1.29244e-22
-2.12277e-20
1.29652e-22
-2.13578e-20
1.30038e-22
-2.14882e-20
1.30446e-22
-2.1619e-20
1.30832e-22
-2.17502e-20
1.3124e-22
-2.18819e-20
1.31626e-22
-2.20139e-20
1.32034e-22
-2.21463e-20
1.3242e-22
-2.22791e-20
1.32829e-22
-2.24123e-20
1.33214e-22
-2.25459e-20
1.33623e-22
-2.26799e-20
1.34009e-22
-2.28143e-20
1.34417e-22
-2.29491e-20
1.34803e-22
-2.30843e-20
1.35211e-22
-2.32199e-20
1.35597e-22
-2.33559e-20
1.36006e-22
-2.34923e-20
1.36391e-22
-2.36291e-20
1.368e-22
-2.37663e-20
1.37185e-22
-2.39038e-20
1.37594e-22
-2.40418e-20
1.37979e-22
-2.41802e-20
1.38388e-22
-2.43189e-20
1.38773e-22
-2.44581e-20
1.39183e-22
-2.45977e-20
1.39567e-22
-2.47376e-20
1.39977e-22
-2.4878e-20
1.40361e-22
-2.50187e-20
1.40771e-22
-2.51599e-20
1.41155e-22
-2.53014e-20
1.41565e-22
-2.54434e-20
1.41949e-22
-2.55857e-20
1.42359e-22
-2.57285e-20
1.42743e-22
-2.58716e-20
1.43154e-22
-2.60151e-20
1.43537e-22
-2.61591e-20
1.43948e-22
-2.63034e-20
1.44331e-22
-2.64481e-20
1.44742e-22
-2.65932e-20
1.45125e-22
-2.67387e-20
1.45536e-22
-2.68847e-20
1.45919e-22
-2.7031e-20
1.46331e-22
-2.71777e-20
1.46713e-22
-2.73248e-20
1.47125e-22
-2.74723e-20
1.47507e-22
-2.76202e-20
1.47919e-22
-2.77685e-20
1.48302e-22
-2.79172e-20
1.48713e-22
-2.80663e-20
1.49096e-22
-2.82158e-20
1.49508e-22
-2.83657e-20
1.4989e-22
-2.85159e-20
1.50302e-22
-2.86666e-20
1.50684e-22
-2.88177e-20
1.51096e-22
-2.89692e-20
1.51478e-22
-2.9121e-20
1.5189e-22
-2.92733e-20
1.52272e-22
-2.9426e-20
1.52684e-22
-2.9579e-20
1.53066e-22
-2.97325e-20
1.53479e-22
-2.98864e-20
1.5386e-22
-3.00406e-20
1.54273e-22
-3.01953e-20
1.54654e-22
-3.03503e-20
1.55067e-22
-3.05058e-20
1.55448e-22
-3.06616e-20
1.55861e-22
-3.08178e-20
1.56242e-22
-3.09745e-20
1.56656e-22
-3.11315e-20
1.57036e-22
-3.12889e-20
1.5745e-22
-3.14468e-20
1.5783e-22
-3.1605e-20
1.58244e-22
-3.17636e-20
1.58624e-22
-3.19226e-20
1.59038e-22
-3.2082e-20
1.59418e-22
-3.22418e-20
1.59833e-22
-3.24021e-20
1.60212e-22
-3.25627e-20
1.60627e-22
-3.27237e-20
1.61006e-22
-3.28851e-20
1.61421e-22
-3.30469e-20
1.61801e-22
-3.3209e-20
1.62215e-22
-3.33716e-20
1.62595e-22
-3.35346e-20
1.6301e-22
-3.3698e-20
1.63389e-22
-3.38618e-20
1.63804e-22
-3.4026e-20
1.64183e-22
-3.41905e-20
1.64598e-22
-3.43555e-20
1.64977e-22
-3.45209e-20
1.65392e-22
-3.46867e-20
1.65771e-22
-3.48528e-20
1.66187e-22
-3.50194e-20
1.66565e-22
-3.51863e-20
1.66981e-22
-3.53537e-20
1.67359e-22
-3.55215e-20
1.67775e-22
-3.56896e-20
1.68153e-22
-3.58581e-20
1.68569e-22
-3.60271e-20
1.68947e-22
-3.61964e-20
1.69364e-22
-3.63662e-20
1.69741e-22
-3.65363e-20
1.70158e-22
-3.67068e-20
1.70535e-22
-3.68778e-20
1.70952e-22
-3.70491e-20
1.71329e-22
-3.72208e-20
1.71746e-22
-3.73929e-20
1.72123e-22
-3.75655e-20
1.7254e-22
-3.77384e-20
1.72917e-22
-3.79117e-20
1.73335e-22
-3.80854e-20
1.73711e-22
-3.82595e-20
1.74129e-22
-3.8434e-20
1.74505e-22
-3.86089e-20
1.74923e-22
-3.87842e-20
1.75299e-22
-3.89599e-20
1.75717e-22
-3.9136e-20
1.76093e-22
-3.93125e-20
1.76512e-22
-3.94894e-20
1.76888e-22
-3.96666e-20
1.77306e-22
-3.98443e-20
1.77682e-22
-4.00224e-20
1.781e-22
-4.02009e-20
1.78476e-22
-4.03797e-20
1.78894e-22
-4.0559e-20
1.7927e-22
-4.07387e-20
1.79689e-22
-4.09187e-20
1.80064e-22
-4.10992e-20
1.80483e-22
-4.128e-20
1.80858e-22
-4.14613e-20
1.81277e-22
-4.16429e-20
1.81652e-22
-4.1825e-20
1.82071e-22
-4.20074e-20
1.82446e-22
-4.21903e-20
1.82866e-22
-4.23735e-20
1.8324e-22
-4.25571e-20
1.8366e-22
-4.27412e-20
1.84034e-22
-4.29256e-20
1.84454e-22
-4.31104e-20
1.84828e-22
-4.32956e-20
1.85248e-22
-4.34813e-20
1.85622e-22
-4.36673e-20
1.86043e-22
-4.38537e-20
1.86416e-22
-4.40405e-20
1.86837e-22
-4.42277e-20
1.8721e-22
-4.44153e-20
1.87631e-22
-4.46033e-20
1.88004e-22
-4.47917e-20
1.88425e-22
-4.49805e-20
1.88798e-22
-4.51697e-20
1.8922e-22
-4.53593e-20
1.89592e-22
-4.55493e-20
1.90014e-22
-4.57397e-20
1.90386e-22
-4.59305e-20
1.90808e-22
-4.61217e-20
1.9118e-22
-4.63132e-20
1.91602e-22
-4.65052e-20
1.91974e-22
-4.66976e-20
1.92397e-22
-4.68903e-20
1.92769e-22
-4.70835e-20
1.93191e-22
-4.72771e-20
1.93563e-22
-4.7471e-20
1.93985e-22
-4.76654e-20
1.94357e-22
-4.78601e-20
1.94779e-22
-4.80553e-20
1.95151e-22
-4.82508e-20
1.95574e-22
-4.84468e-20
1.95945e-22
-4.86431e-20
1.96368e-22
-4.88398e-20
1.96739e-22
-4.9037e-20
1.97162e-22
-4.92345e-20
1.97533e-22
-4.94324e-20
1.97956e-22
-4.96308e-20
1.98327e-22
-4.98295e-20
1.98751e-22
-5.00286e-20
1.99121e-22
-5.02281e-20
1.99545e-22
-5.0428e-20
1.99915e-22
-5.06283e-20
2.00339e-22
-5.08291e-20
2.00709e-22
-5.10301e-20
2.01133e-22
-5.12317e-20
2.01503e-22
-5.14335e-20
2.01928e-22
-5.16359e-20
2.02297e-22
-5.18385e-20
2.02722e-22
-5.20416e-20
2.03091e-22
-5.22451e-20
2.03516e-22
-5.2449e-20
2.03885e-22
-5.26533e-20
2.0431e-22
-5.2858e-20
2.04679e-22
-5.3063e-20
2.05105e-22
-5.32685e-20
2.05473e-22
-5.34744e-20
2.05899e-22
-5.36806e-20
2.06267e-22
-5.38873e-20
2.06693e-22
-5.40944e-20
2.07061e-22
-5.43018e-20
2.07487e-22
-5.45097e-20
2.07855e-22
-5.47179e-20
2.08282e-22
-5.49266e-20
2.08649e-22
-5.51356e-20
2.09076e-22
-5.53451e-20
2.09443e-22
-5.55549e-20
2.0987e-22
-5.57651e-20
2.10237e-22
-5.59758e-20
2.10664e-22
-5.61868e-20
2.11032e-22
-5.63982e-20
2.11459e-22
-5.66101e-20
2.11826e-22
-5.68223e-20
2.12253e-22
-5.70349e-20
2.1262e-22
-5.72479e-20
2.13047e-22
-5.74613e-20
2.13414e-22
-5.76751e-20
2.13842e-22
-5.78894e-20
2.14208e-22
-5.81039e-20
2.14636e-22
-5.8319e-20
2.15002e-22
-5.85343e-20
2.1543e-22
-5.87502e-20
2.15796e-22
-5.89663e-20
2.16224e-22
-5.91829e-20
2.1659e-22
-5.93999e-20
2.17019e-22
-5.96173e-20
2.17384e-22
-5.98351e-20
2.17813e-22
-6.00533e-20
2.18178e-22
-6.02718e-20
2.18607e-22
-6.04908e-20
2.18972e-22
-6.07102e-20
2.19401e-22
-6.09299e-20
2.19766e-22
-6.11501e-20
2.20196e-22
-6.13707e-20
2.2056e-22
-6.15916e-20
2.2099e-22
-6.1813e-20
2.21354e-22
-6.20347e-20
2.21784e-22
-6.22569e-20
2.22148e-22
-6.24794e-20
2.22578e-22
-6.27024e-20
2.22942e-22
-6.29257e-20
2.23373e-22
-6.31494e-20
2.23736e-22
-6.33736e-20
2.24167e-22
-6.35981e-20
2.2453e-22
-6.3823e-20
2.24961e-22
-6.40484e-20
2.25324e-22
-6.42741e-20
2.25755e-22
-6.45002e-20
2.26118e-22
-6.47267e-20
2.2655e-22
-6.49536e-20
2.26912e-22
-6.51809e-20
2.27344e-22
-6.54086e-20
2.27706e-22
-6.56367e-20
2.28138e-22
-6.58653e-20
2.285e-22
-6.60941e-20
2.28933e-22
-6.63234e-20
2.29294e-22
-6.65531e-20
2.29727e-22
-6.67832e-20
2.30088e-22
-6.70137e-20
2.30521e-22
-6.72446e-20
2.30882e-22
-6.74759e-20
2.31315e-22
-6.77076e-20
2.31676e-22
-6.79396e-20
2.3211e-22
-6.81721e-20
2.32471e-22
-6.84049e-20
2.32904e-22
-6.86382e-20
2.33265e-22
-6.88719e-20
2.33698e-22
-6.9106e-20
2.34059e-22
-6.93404e-20
2.34492e-22
-6.95753e-20
2.34853e-22
-6.98105e-20
2.35287e-22
-7.00462e-20
2.35647e-22
-7.02822e-20
2.36081e-22
-7.05187e-20
2.36441e-22
-7.07555e-20
2.36875e-22
-7.09927e-20
2.37235e-22
-7.12303e-20
2.37669e-22
-7.14684e-20
2.38029e-22
-7.17068e-20
2.38464e-22
-7.19456e-20
2.38823e-22
-7.21848e-20
2.39258e-22
-7.24245e-20
2.39617e-22
-7.26645e-20
2.40052e-22
-7.29049e-20
2.40411e-22
-7.31457e-20
2.40847e-22
-7.33869e-20
2.41205e-22
-7.36285e-20
2.41641e-22
-7.38705e-20
2.41999e-22
-7.41129e-20
2.42435e-22
-7.43557e-20
2.42793e-22
-7.45989e-20
2.43229e-22
-7.48425e-20
2.43587e-22
-7.50865e-20
2.44024e-22
-7.53309e-20
2.44381e-22
-7.55756e-20
2.44818e-22
-7.58208e-20
2.45175e-22
-7.60664e-20
2.45612e-22
-7.63124e-20
2.45969e-22
-7.65587e-20
2.46406e-22
-7.68055e-20
2.46763e-22
-7.70526e-20
2.47201e-22
-7.73002e-20
2.47557e-22
-7.75482e-20
2.47995e-22
-7.77965e-20
2.48351e-22
-7.80453e-20
2.48789e-22
-7.82944e-20
2.49145e-22
-7.8544e-20
2.49584e-22
-7.87939e-20
2.49939e-22
-7.90442e-20
2.50378e-22
-7.9295e-20
2.50733e-22
-7.95461e-20
2.51172e-22
-7.97977e-20
2.51527e-22
-8.00496e-20
2.51966e-22
-8.03019e-20
2.52321e-22
-8.05546e-20
2.52761e-22
-8.08077e-20
2.53115e-22
-8.10612e-20
2.53555e-22
-8.13152e-20
2.53909e-22
-8.15695e-20
2.54349e-22
-8.18242e-20
2.54703e-22
-8.20793e-20
2.55143e-22
-8.23348e-20
2.55497e-22
-8.25907e-20
2.55938e-22
-8.2847e-20
2.56291e-22
-8.31037e-20
2.56732e-22
-8.33608e-20
2.57085e-22
-8.36182e-20
2.57526e-22
-8.38761e-20
2.57879e-22
-8.41344e-20
2.58321e-22
-8.43931e-20
2.58673e-22
-8.46521e-20
2.59115e-22
-8.49116e-20
2.59467e-22
-8.51715e-20
2.59909e-22
-8.54318e-20
2.60261e-22
-8.56924e-20
2.60703e-22
-8.59535e-20
2.61055e-22
-8.62149e-20
2.61498e-22
-8.64768e-20
2.61849e-22
-8.6739e-20
2.62292e-22
-8.70017e-20
2.62643e-22
-8.72647e-20
2.63086e-22
-8.75282e-20
2.63438e-22
-8.7792e-20
2.63881e-22
-8.80563e-20
2.64232e-22
-8.83209e-20
2.64675e-22
-8.85859e-20
2.65026e-22
-8.88513e-20
2.65469e-22
-8.91172e-20
2.6582e-22
-8.93834e-20
2.66263e-22
-8.965e-20
2.66614e-22
-8.9917e-20
2.67058e-22
-9.01844e-20
2.67408e-22
-9.04522e-20
2.67852e-22
-9.07204e-20
2.68202e-22
-9.0989e-20
2.68646e-22
-9.1258e-20
2.68996e-22
-9.15274e-20
2.69441e-22
-9.17972e-20
2.6979e-22
-9.20674e-20
2.70235e-22
-9.2338e-20
2.70584e-22
-9.2609e-20
2.71029e-22
-9.28804e-20
2.71378e-22
-9.31521e-20
2.71823e-22
-9.34243e-20
2.72172e-22
-9.36969e-20
2.72618e-22
-9.39699e-20
2.72966e-22
-9.42432e-20
2.73412e-22
-9.4517e-20
2.7376e-22
-9.47912e-20
2.74206e-22
-9.50657e-20
2.74554e-22
-9.53407e-20
2.75001e-22
-9.5616e-20
2.75348e-22
-9.58918e-20
2.75795e-22
-9.61679e-20
2.76142e-22
-9.64445e-20
2.76589e-22
-9.67214e-20
2.76936e-22
-9.69987e-20
2.77383e-22
-9.72765e-20
2.7773e-22
-9.75546e-20
2.78178e-22
-9.78332e-20
2.78524e-22
-9.81121e-20
2.78972e-22
-9.83914e-20
2.79318e-22
-9.86711e-20
2.79766e-22
-9.89512e-20
2.80112e-22
-9.92317e-20
2.80561e-22
-9.95127e-20
2.80906e-22
-9.9794e-20
2.81355e-22
-1.00076e-19
2.817e-22
-1.00358e-19
2.82149e-22
-1.0064e-19
2.82494e-22
-1.00923e-19
2.82943e-22
-1.01206e-19
2.83288e-22
-1.0149e-19
2.83738e-22
-1.01774e-19
2.84082e-22
-1.02059e-19
2.84532e-22
-1.02344e-19
2.84876e-22
-1.02629e-19
2.85326e-22
-1.02915e-19
2.8567e-22
-1.03201e-19
2.86121e-22
-1.03487e-19
2.86464e-22
-1.03774e-19
2.86915e-22
-1.04061e-19
2.87258e-22
-1.04349e-19
2.87709e-22
-1.04637e-19
2.88052e-22
-1.04925e-19
2.88503e-22
-1.05214e-19
2.88846e-22
-1.05503e-19
2.89298e-22
-1.05793e-19
2.8964e-22
-1.06083e-19
2.90092e-22
-1.06374e-19
2.90434e-22
-1.06664e-19
2.90886e-22
-1.06956e-19
2.91228e-22
-1.07247e-19
2.91681e-22
-1.07539e-19
2.92022e-22
-1.07832e-19
2.92475e-22
-1.08125e-19
2.92816e-22
-1.08418e-19
2.93269e-22
-1.08711e-19
2.9361e-22
-1.09005e-19
2.94064e-22
-1.093e-19
2.94404e-22
-1.09595e-19
2.94858e-22
-1.0989e-19
2.95198e-22
-1.10185e-19
2.95652e-22
-1.10482e-19
2.95992e-22
-1.10778e-19
2.96446e-22
-1.11075e-19
2.96786e-22
-1.11372e-19
2.97241e-22
-1.11669e-19
2.9758e-22
-1.11967e-19
2.98035e-22
-1.12266e-19
2.98374e-22
-1.12565e-19
2.98829e-22
-1.12864e-19
2.99168e-22
-1.13163e-19
2.99624e-22
-1.13463e-19
2.99962e-22
-1.13764e-19
3.00418e-22
-1.14064e-19
3.00756e-22
-1.14366e-19
3.01212e-22
-1.14667e-19
3.0155e-22
-1.14969e-19
3.02007e-22
-1.15271e-19
3.02344e-22
-1.15574e-19
3.02801e-22
-1.15877e-19
3.03138e-22
-1.16181e-19
3.03595e-22
-1.16485e-19
3.03932e-22
-1.16789e-19
3.04389e-22
-1.17094e-19
3.04726e-22
-1.17399e-19
3.05184e-22
-1.17705e-19
3.0552e-22
-1.1801e-19
3.05978e-22
-1.18317e-19
3.06314e-22
-1.18624e-19
3.06772e-22
-1.18931e-19
3.07108e-22
-1.19238e-19
3.07567e-22
-1.19546e-19
3.07902e-22
-1.19854e-19
3.08361e-22
-1.20163e-19
3.08696e-22
-1.20472e-19
3.09155e-22
-1.20782e-19
3.0949e-22
-1.21092e-19
3.0995e-22
-1.21402e-19
3.10284e-22
-1.21713e-19
3.10744e-22
-1.22024e-19
3.11078e-22
-1.22335e-19
3.11538e-22
-1.22647e-19
3.11872e-22
-1.22959e-19
3.12332e-22
-1.23272e-19
3.12666e-22
-1.23585e-19
3.13127e-22
-1.23899e-19
3.1346e-22
-1.24212e-19
3.13921e-22
-1.24527e-19
3.14254e-22
-1.24841e-19
3.14715e-22
-1.25156e-19
3.15048e-22
-1.25472e-19
3.1551e-22
-1.25788e-19
3.15842e-22
-1.26104e-19
3.16304e-22
-1.26421e-19
3.16636e-22
-1.26738e-19
3.17098e-22
-1.27055e-19
3.1743e-22
-1.27373e-19
3.17893e-22
-1.27691e-19
3.18224e-22
-1.2801e-19
3.18687e-22
-1.28329e-19
3.19018e-22
-1.28648e-19
3.19481e-22
-1.28968e-19
3.19812e-22
-1.29288e-19
3.20276e-22
-1.29609e-19
3.20606e-22
-1.2993e-19
3.2107e-22
-1.30251e-19
3.214e-22
-1.30573e-19
3.21864e-22
-1.30895e-19
3.22194e-22
-1.31218e-19
3.22658e-22
-1.31541e-19
3.22988e-22
-1.31864e-19
3.23453e-22
-1.32188e-19
3.23782e-22
-1.32512e-19
3.24247e-22
-1.32837e-19
3.24576e-22
-1.33162e-19
3.25041e-22
-1.33487e-19
3.2537e-22
-1.33813e-19
3.25836e-22
-1.34139e-19
3.26164e-22
-1.34466e-19
3.2663e-22
-1.34793e-19
3.26958e-22
-1.3512e-19
3.27424e-22
-1.35448e-19
3.27752e-22
-1.35776e-19
3.28219e-22
-1.36105e-19
3.28546e-22
-1.36434e-19
3.29013e-22
-1.36763e-19
3.2934e-22
-1.37093e-19
3.29807e-22
-1.37423e-19
3.30134e-22
-1.37753e-19
3.30602e-22
-1.38084e-19
3.30928e-22
-1.38416e-19
3.31396e-22
-1.38747e-19
3.31722e-22
-1.39079e-19
3.3219e-22
-1.39412e-19
3.32516e-22
-1.39745e-19
3.32984e-22
-1.40078e-19
3.3331e-22
-1.40412e-19
3.33779e-22
-1.40746e-19
3.34104e-22
-1.41081e-19
3.34573e-22
-1.41416e-19
3.34898e-22
-1.41751e-19
3.35367e-22
-1.42087e-19
3.35692e-22
-1.42423e-19
3.36162e-22
-1.42759e-19
3.36486e-22
-1.43096e-19
3.36956e-22
-1.43433e-19
3.3728e-22
-1.43771e-19
3.3775e-22
-1.44109e-19
3.38074e-22
-1.44448e-19
3.38545e-22
-1.44786e-19
3.38868e-22
-1.45126e-19
3.39339e-22
-1.45465e-19
3.39662e-22
-1.45805e-19
3.40133e-22
-1.46146e-19
3.40456e-22
-1.46487e-19
3.40928e-22
-1.46828e-19
3.4125e-22
-1.4717e-19
3.41722e-22
-1.47512e-19
3.42044e-22
-1.47854e-19
3.42516e-22
-1.48197e-19
3.42838e-22
-1.4854e-19
3.43311e-22
-1.48884e-19
3.43632e-22
-1.49228e-19
3.44105e-22
-1.49572e-19
3.44426e-22
-1.49917e-19
3.44899e-22
-1.50263e-19
3.4522e-22
-1.50608e-19
3.45694e-22
-1.50954e-19
3.46014e-22
-1.51301e-19
3.46488e-22
-1.51647e-19
3.46808e-22
-1.51995e-19
3.47282e-22
-1.52342e-19
3.47602e-22
-1.5269e-19
3.48077e-22
-1.53039e-19
3.48396e-22
-1.53387e-19
3.48871e-22
-1.53737e-19
3.4919e-22
-1.54086e-19
3.49665e-22
-1.54436e-19
3.49984e-22
-1.54787e-19
3.5046e-22
-1.55137e-19
3.50777e-22
-1.55489e-19
3.51254e-22
-1.5584e-19
3.51571e-22
-1.56192e-19
3.52048e-22
-1.56545e-19
3.52365e-22
-1.56897e-19
3.52842e-22
-1.57251e-19
3.53159e-22
-1.57604e-19
3.53637e-22
-1.57958e-19
3.53953e-22
-1.58312e-19
3.54431e-22
-1.58667e-19
3.54747e-22
-1.59022e-19
3.55225e-22
-1.59378e-19
3.55541e-22
-1.59734e-19
3.5602e-22
-1.6009e-19
3.56335e-22
-1.60447e-19
3.56814e-22
-1.60804e-19
3.57129e-22
-1.61162e-19
3.57608e-22
-1.6152e-19
3.57923e-22
-1.61878e-19
3.58403e-22
-1.62237e-19
3.58717e-22
-1.62596e-19
3.59197e-22
-1.62955e-19
3.59511e-22
-1.63315e-19
3.59991e-22
-1.63676e-19
3.60305e-22
-1.64036e-19
3.60786e-22
-1.64397e-19
3.61099e-22
-1.64759e-19
3.6158e-22
-1.65121e-19
3.61893e-22
-1.65483e-19
3.62374e-22
-1.65846e-19
3.62687e-22
-1.66209e-19
3.63169e-22
-1.66572e-19
3.63481e-22
-1.66936e-19
3.63963e-22
-1.67301e-19
3.64275e-22
-1.67665e-19
3.64757e-22
-1.6803e-19
3.65069e-22
-1.68396e-19
3.65552e-22
-1.68762e-19
3.65863e-22
-1.69128e-19
3.66346e-22
-1.69495e-19
3.66657e-22
-1.69862e-19
3.6714e-22
-1.70229e-19
3.67451e-22
-1.70597e-19
3.67935e-22
-1.70965e-19
3.68245e-22
-1.71334e-19
3.68729e-22
-1.71703e-19
3.69039e-22
-1.72073e-19
3.69523e-22
-1.72442e-19
3.69833e-22
-1.72813e-19
3.70318e-22
-1.73183e-19
3.70627e-22
-1.73554e-19
3.71112e-22
-1.73926e-19
3.71421e-22
-1.74298e-19
3.71906e-22
-1.7467e-19
3.72215e-22
-1.75042e-19
3.72701e-22
-1.75416e-19
3.73009e-22
-1.75789e-19
3.73495e-22
-1.76163e-19
3.73803e-22
-1.76537e-19
3.74289e-22
-1.76912e-19
3.74597e-22
-1.77287e-19
3.75084e-22
-1.77662e-19
3.75391e-22
-1.78038e-19
3.75878e-22
-1.78414e-19
3.76185e-22
-1.78791e-19
3.76672e-22
-1.79168e-19
3.76979e-22
-1.79545e-19
3.77467e-22
-1.79923e-19
3.77773e-22
-1.80301e-19
3.78261e-22
-1.8068e-19
3.78567e-22
-1.81058e-19
3.79055e-22
-1.81438e-19
3.79361e-22
-1.81818e-19
3.7985e-22
-1.82198e-19
3.80155e-22
-1.82578e-19
3.80644e-22
-1.82959e-19
3.80948e-22
-1.83341e-19
3.81438e-22
-1.83723e-19
3.81742e-22
-1.84105e-19
3.82233e-22
-1.84487e-19
3.82536e-22
-1.8487e-19
3.83027e-22
-1.85254e-19
3.8333e-22
-1.85637e-19
3.83821e-22
-1.86021e-19
3.84124e-22
-1.86406e-19
3.84616e-22
-1.86791e-19
3.84918e-22
-1.87176e-19
3.8541e-22
-1.87562e-19
3.85712e-22
-1.87948e-19
3.86204e-22
-1.88335e-19
3.86506e-22
-1.88722e-19
3.86999e-22
-1.89109e-19
3.873e-22
-1.89497e-19
3.87793e-22
-1.89885e-19
3.88094e-22
-1.90273e-19
3.88587e-22
-1.90662e-19
3.88888e-22
-1.91051e-19
3.89382e-22
-1.91441e-19
3.89682e-22
-1.91831e-19
3.90176e-22
-1.92222e-19
3.90476e-22
-1.92613e-19
3.9097e-22
-1.93004e-19
3.9127e-22
-1.93396e-19
3.91765e-22
-1.93788e-19
3.92064e-22
-1.9418e-19
3.92559e-22
-1.94573e-19
3.92858e-22
-1.94966e-19
3.93354e-22
-1.9536e-19
3.93652e-22
-1.95754e-19
3.94148e-22
-1.96149e-19
3.94446e-22
-1.96543e-19
3.94942e-22
-1.96939e-19
3.9524e-22
-1.97334e-19
3.95737e-22
-1.9773e-19
3.96034e-22
-1.98127e-19
3.96531e-22
-1.98524e-19
3.96828e-22
-1.98921e-19
3.97325e-22
-1.99319e-19
3.97622e-22
-1.99717e-19
3.9812e-22
-2.00115e-19
3.98416e-22
-2.00514e-19
3.98914e-22
-2.00913e-19
3.9921e-22
-2.01313e-19
3.99708e-22
-2.01713e-19
4.00004e-22
-2.02113e-19
4.00503e-22
-2.02514e-19
4.00797e-22
-2.02915e-19
4.01297e-22
-2.03317e-19
4.01591e-22
-2.03719e-19
4.02091e-22
-2.04121e-19
4.02385e-22
-2.04524e-19
4.02886e-22
-2.04927e-19
4.03179e-22
-2.05331e-19
4.0368e-22
-2.05735e-19
4.03973e-22
-2.06139e-19
4.04474e-22
-2.06544e-19
4.04767e-22
-2.06949e-19
4.05269e-22
-2.07355e-19
4.05561e-22
-2.07761e-19
4.06063e-22
-2.08167e-19
4.06355e-22
-2.08574e-19
4.06857e-22
-2.08981e-19
4.07149e-22
-2.09389e-19
4.07652e-22
-2.09797e-19
4.07943e-22
-2.10205e-19
4.08446e-22
-2.10614e-19
4.08737e-22
-2.11023e-19
4.0924e-22
-2.11432e-19
4.09531e-22
-2.11842e-19
4.10035e-22
-2.12253e-19
4.10325e-22
-2.12663e-19
4.10829e-22
-2.13075e-19
4.11119e-22
-2.13486e-19
4.11624e-22
-2.13898e-19
4.11913e-22
-2.1431e-19
4.12418e-22
-2.14723e-19
4.12707e-22
-2.15136e-19
4.13212e-22
-2.1555e-19
4.13501e-22
-2.15964e-19
4.14007e-22
-2.16378e-19
4.14295e-22
-2.16793e-19
4.14801e-22
-2.17208e-19
4.15089e-22
-2.17623e-19
4.15595e-22
-2.18039e-19
4.15883e-22
-2.18456e-19
4.1639e-22
-2.18872e-19
4.16677e-22
-2.19289e-19
4.17184e-22
-2.19707e-19
4.1747e-22
-2.20125e-19
4.17978e-22
-2.20543e-19
4.18264e-22
-2.20962e-19
4.18773e-22
-2.21381e-19
4.19058e-22
-2.218e-19
4.19567e-22
-2.2222e-19
4.19852e-22
-2.22641e-19
4.20361e-22
-2.23061e-19
4.20646e-22
-2.23482e-19
4.21156e-22
-2.23904e-19
4.2144e-22
-2.24326e-19
4.2195e-22
-2.24748e-19
4.22234e-22
-2.2517e-19
4.22745e-22
-2.25594e-19
4.23028e-22
-2.26017e-19
4.23539e-22
-2.26441e-19
4.23822e-22
-2.26865e-19
4.24333e-22
-2.2729e-19
4.24616e-22
-2.27715e-19
4.25128e-22
-2.2814e-19
4.2541e-22
-2.28566e-19
4.25922e-22
-2.28992e-19
4.26204e-22
-2.29419e-19
4.26716e-22
-2.29846e-19
4.26998e-22
-2.30273e-19
4.27511e-22
-2.30701e-19
4.27792e-22
-2.31129e-19
4.28305e-22
-2.31558e-19
4.28586e-22
-2.31987e-19
4.29099e-22
-2.32416e-19
4.2938e-22
-2.32846e-19
4.29894e-22
-2.33276e-19
4.30174e-22
-2.33707e-19
4.30688e-22
-2.34138e-19
4.30968e-22
-2.34569e-19
4.31482e-22
-2.35001e-19
4.31761e-22
-2.35433e-19
4.32277e-22
-2.35866e-19
4.32555e-22
-2.36299e-19
4.33071e-22
-2.36732e-19
4.33349e-22
-2.37166e-19
4.33866e-22
-2.376e-19
4.34143e-22
-2.38035e-19
4.3466e-22
-2.3847e-19
4.34937e-22
-2.38905e-19
4.35454e-22
-2.39341e-19
4.35731e-22
-2.39777e-19
4.36249e-22
-2.40214e-19
4.36525e-22
-2.40651e-19
4.37043e-22
-2.41088e-19
4.37319e-22
-2.41526e-19
4.37837e-22
-2.41964e-19
4.38113e-22
-2.42402e-19
4.38632e-22
-2.42841e-19
4.38907e-22
-2.43281e-19
4.39426e-22
-2.4372e-19
4.39701e-22
-2.4416e-19
4.40221e-22
-2.44601e-19
4.40495e-22
-2.45042e-19
4.41015e-22
-2.45483e-19
4.41289e-22
-2.45925e-19
4.41809e-22
-2.46367e-19
4.42083e-22
-2.4681e-19
4.42604e-22
-2.47253e-19
4.42877e-22
-2.47696e-19
4.43398e-22
-2.4814e-19
4.43671e-22
-2.48584e-19
4.44192e-22
-2.49028e-19
4.44464e-22
-2.49473e-19
4.44987e-22
-2.49918e-19
4.45258e-22
-2.50364e-19
4.45781e-22
-2.5081e-19
4.46052e-22
-2.51257e-19
4.46575e-22
-2.51703e-19
4.46846e-22
-2.52151e-19
4.4737e-22
-2.52598e-19
4.4764e-22
-2.53046e-19
4.48164e-22
-2.53495e-19
4.48434e-22
-2.53944e-19
4.48959e-22
-2.54393e-19
4.49228e-22
-2.54843e-19
4.49753e-22
-2.55293e-19
4.50022e-22
-2.55743e-19
4.50547e-22
-2.56194e-19
4.50816e-22
-2.56645e-19
4.51342e-22
-2.57097e-19
4.5161e-22
-2.57549e-19
4.52136e-22
-2.58001e-19
4.52404e-22
-2.58454e-19
4.5293e-22
-2.58908e-19
4.53198e-22
-2.59361e-19
4.53725e-22
-2.59815e-19
4.53992e-22
-2.6027e-19
4.54519e-22
-2.60724e-19
4.54786e-22
-2.6118e-19
4.55314e-22
-2.61635e-19
4.5558e-22
-2.62091e-19
4.56108e-22
-2.62548e-19
4.56373e-22
-2.63004e-19
4.56902e-22
-2.63462e-19
4.57167e-22
-2.63919e-19
4.57697e-22
-2.64377e-19
4.57961e-22
-2.64836e-19
4.58491e-22
-2.65294e-19
4.58755e-22
-2.65754e-19
4.59285e-22
-2.66213e-19
4.59549e-22
-2.66673e-19
4.6008e-22
-2.67134e-19
4.60343e-22
-2.67594e-19
4.60874e-22
-2.68055e-19
4.61137e-22
-2.68517e-19
4.61669e-22
-2.68979e-19
4.61931e-22
-2.69441e-19
4.62463e-22
-2.69904e-19
4.62725e-22
-2.70367e-19
4.63257e-22
-2.70831e-19
4.63519e-22
-2.71295e-19
4.64052e-22
-2.71759e-19
4.64313e-22
-2.72224e-19
4.64846e-22
-2.72689e-19
4.65107e-22
-2.73155e-19