/*--------------------------------*- C++ -*----------------------------------*\
| =========                 |                                                 |
| \\      /  F ield         | OpenFOAM: The Open Source CFD Toolbox           |
|  \\    /   O peration     | Version:  2206                                  |
|   \\  /    A nd           | Website:  www.openfoam.com                      |
|    \\/     M anipulation  |                                                 |
\*---------------------------------------------------------------------------*/
FoamFile
{
    version     2.0;
    format      ascii;
    arch        "LSB;label=32;scalar=64";
    class       volVectorField;
    location    "50";
    object      U;
}
// * * * * * * * * * * * * * * * * * * * * * * * * * * * * * * * * * * * * * //

dimensions      [0 1 -1 0 0 0 0];

internalField   nonuniform List<vector> 
100000
(
(-1.28154e-11 1.67023e-06 -1.64022e-11)
(-1.72218e-11 2.36357e-06 -1.21344e-12)
(1.67442e-11 4.48403e-06 2.67742e-13)
(-9.61695e-12 6.71234e-06 2.18672e-13)
(-9.71065e-12 8.82671e-06 1.90724e-14)
(-4.63641e-12 9.06202e-06 -8.84184e-15)
(-1.09954e-11 1.11976e-05 3.39202e-14)
(-5.91408e-12 1.34324e-05 6.40509e-14)
(-1.27742e-11 1.56667e-05 6.60129e-14)
(-1.09709e-11 1.77897e-05 3.53867e-14)
(-1.27034e-11 1.80174e-05 2.83826e-14)
(-1.33033e-11 2.01507e-05 5.66407e-14)
(-1.51567e-11 2.23859e-05 5.63314e-14)
(-1.73535e-11 2.46208e-05 5.03742e-14)
(-1.86921e-11 2.67462e-05 3.44232e-14)
(-1.79306e-11 2.69726e-05 2.51914e-14)
(-1.96147e-11 2.91046e-05 5.34857e-14)
(-2.1302e-11 3.13399e-05 4.98966e-14)
(-2.32631e-11 3.35749e-05 5.39942e-14)
(-2.46815e-11 3.57015e-05 2.65965e-14)
(-2.40982e-11 3.59274e-05 2.8508e-14)
(-2.54193e-11 3.80587e-05 4.92136e-14)
(-2.75463e-11 4.02941e-05 5.28713e-14)
(-2.90077e-11 4.25325e-05 5.09238e-14)
(-3.11522e-11 4.47677e-05 5.29268e-14)
(-3.24784e-11 4.6895e-05 2.70795e-14)
(-3.18824e-11 4.71206e-05 2.77022e-14)
(-3.33012e-11 4.92514e-05 5.02671e-14)
(-3.52335e-11 5.14868e-05 5.2012e-14)
(-3.69959e-11 5.3722e-05 5.10115e-14)
(-3.8613e-11 5.58497e-05 2.83393e-14)
(-3.77988e-11 5.60752e-05 2.61279e-14)
(-3.93894e-11 5.82057e-05 5.1577e-14)
(-4.1191e-11 6.0441e-05 5.04781e-14)
(-4.30556e-11 6.26763e-05 5.2128e-14)
(-4.45926e-11 6.48043e-05 2.69153e-14)
(-4.38462e-11 6.50297e-05 2.72938e-14)
(-4.53851e-11 6.716e-05 5.03596e-14)
(-4.72314e-11 6.93953e-05 5.14794e-14)
(-4.90586e-11 7.16306e-05 5.09426e-14)
(-5.06284e-11 7.37588e-05 2.78124e-14)
(-4.9856e-11 7.39842e-05 2.63141e-14)
(-5.14214e-11 7.61143e-05 5.12404e-14)
(-5.3245e-11 7.83496e-05 5.05317e-14)
(-5.50937e-11 8.05849e-05 5.16904e-14)
(-5.6644e-11 8.27132e-05 2.69281e-14)
(-5.5892e-11 8.29386e-05 2.70798e-14)
(-5.74407e-11 8.50686e-05 5.0474e-14)
(-5.92812e-11 8.73039e-05 5.11947e-14)
(-6.11145e-11 8.95392e-05 5.09359e-14)
(-6.26794e-11 9.16677e-05 2.7527e-14)
(-6.19155e-11 9.1893e-05 2.64454e-14)
(-6.34773e-11 9.40229e-05 5.10653e-14)
(-6.53064e-11 9.62582e-05 5.05724e-14)
(-6.71508e-11 9.84935e-05 5.14451e-14)
(-6.87054e-11 0.000100622 2.69378e-14)
(-6.79526e-11 0.000100847 2.69702e-14)
(-6.95056e-11 0.000102977 5.05473e-14)
(-7.13434e-11 0.000105213 5.10317e-14)
(-7.31803e-11 0.000107448 5.09302e-14)
(-7.47411e-11 0.000109577 2.73547e-14)
(-7.39851e-11 0.000109802 2.65357e-14)
(-7.55401e-11 0.000111932 5.09563e-14)
(-7.738e-11 0.000114167 5.06091e-14)
(-7.92097e-11 0.000116402 5.12731e-14)
(-8.07852e-11 0.000118531 2.69674e-14)
(-8.00047e-11 0.000118756 2.687e-14)
(-8.16002e-11 0.000120886 5.06461e-14)
(-8.33794e-11 0.000123121 5.0859e-14)
(-8.52982e-11 0.000125357 5.10146e-14)
(-8.67461e-11 0.000127485 2.712e-14)
(-8.61457e-11 0.000127711 2.67582e-14)
(-8.74934e-11 0.00012984 5.06864e-14)
(-8.96122e-11 0.000132076 5.11454e-14)
(-9.11024e-11 0.000134314 5.15989e-14)
(-9.32242e-11 0.000136549 5.08536e-14)
(-9.45779e-11 0.000138678 2.74662e-14)
(-9.39691e-11 0.000138904 2.65642e-14)
(-9.54185e-11 0.000141033 5.1137e-14)
(-9.73337e-11 0.000143268 5.06981e-14)
(-9.91199e-11 0.000145504 5.13546e-14)
(-1.00718e-10 0.000147633 2.69783e-14)
(-9.99334e-11 0.000147858 2.69635e-14)
(-1.01509e-10 0.000149987 5.0769e-14)
(-1.03335e-10 0.000152223 5.09945e-14)
(-1.05183e-10 0.000154458 5.10385e-14)
(-1.06739e-10 0.000156587 2.72223e-14)
(-1.05983e-10 0.000156812 2.67151e-14)
(-1.07541e-10 0.000158942 5.09887e-14)
(-1.09378e-10 0.000161177 5.07568e-14)
(-1.11219e-10 0.000163412 5.12229e-14)
(-1.12779e-10 0.000165541 2.70028e-14)
(-1.12022e-10 0.000165767 2.69077e-14)
(-1.1358e-10 0.000167896 5.07898e-14)
(-1.15418e-10 0.000170131 5.09239e-14)
(-1.17257e-10 0.000172367 5.10218e-14)
(-1.18818e-10 0.000174496 2.71611e-14)
(-1.1806e-10 0.000174721 2.67356e-14)
(-1.1962e-10 0.00017685 5.09474e-14)
(-1.21456e-10 0.000179086 5.07465e-14)
(-1.23297e-10 0.000181321 5.11611e-14)
(-1.24857e-10 0.00018345 2.6991e-14)
(-1.241e-10 0.000183675 2.68865e-14)
(-1.25659e-10 0.000185805 5.07907e-14)
(-1.27496e-10 0.00018804 5.08783e-14)
(-1.29337e-10 0.000190275 5.10023e-14)
(-1.30895e-10 0.000192404 2.71143e-14)
(-1.30142e-10 0.00019263 2.67543e-14)
(-1.31696e-10 0.000194759 5.09081e-14)
(-1.33541e-10 0.000196994 5.07495e-14)
(-1.35368e-10 0.00019923 5.10933e-14)
(-1.36947e-10 0.000201359 2.70075e-14)
(-1.36164e-10 0.000201584 2.68327e-14)
(-1.37763e-10 0.000203713 5.08422e-14)
(-1.39542e-10 0.000205949 5.07722e-14)
(-1.41463e-10 0.000208184 5.10783e-14)
(-1.4291e-10 0.000210313 2.69544e-14)
(-1.4231e-10 0.000210538 2.69308e-14)
(-1.43658e-10 0.000212668 5.06755e-14)
(-1.4578e-10 0.000214903 5.12642e-14)
(-1.47269e-10 0.000217142 5.14735e-14)
(-1.49392e-10 0.000219377 5.0851e-14)
(-1.50744e-10 0.000221506 2.72986e-14)
(-1.50139e-10 0.000221731 2.66839e-14)
(-1.51587e-10 0.000223861 5.10829e-14)
(-1.53505e-10 0.000226096 5.07477e-14)
(-1.55289e-10 0.000228331 5.12084e-14)
(-1.56889e-10 0.00023046 2.69772e-14)
(-1.56104e-10 0.000230686 2.69343e-14)
(-1.57681e-10 0.000232815 5.08637e-14)
(-1.59508e-10 0.00023505 5.09131e-14)
(-1.61356e-10 0.000237286 5.10413e-14)
(-1.62911e-10 0.000239415 2.70998e-14)
(-1.62156e-10 0.00023964 2.68137e-14)
(-1.63714e-10 0.000241769 5.09625e-14)
(-1.65553e-10 0.000244005 5.08034e-14)
(-1.67393e-10 0.00024624 5.11196e-14)
(-1.68953e-10 0.000248369 2.70031e-14)
(-1.68196e-10 0.000248594 2.68951e-14)
(-1.69755e-10 0.000250724 5.0874e-14)
(-1.71593e-10 0.000252959 5.08718e-14)
(-1.73433e-10 0.000255194 5.10298e-14)
(-1.74994e-10 0.000257323 2.70696e-14)
(-1.74237e-10 0.000257549 2.68191e-14)
(-1.75796e-10 0.000259678 5.09396e-14)
(-1.77634e-10 0.000261913 5.07908e-14)
(-1.79474e-10 0.000264149 5.10881e-14)
(-1.81034e-10 0.000266278 2.69922e-14)
(-1.80278e-10 0.000266503 2.68853e-14)
(-1.81837e-10 0.000268632 5.08657e-14)
(-1.83675e-10 0.000270868 5.08483e-14)
(-1.85515e-10 0.000273103 5.10113e-14)
(-1.87075e-10 0.000275232 2.70494e-14)
(-1.86318e-10 0.000275457 2.68193e-14)
(-1.87878e-10 0.000277587 5.09233e-14)
(-1.89715e-10 0.000279822 5.07765e-14)
(-1.91556e-10 0.000282057 5.10645e-14)
(-1.93114e-10 0.000284187 2.69778e-14)
(-1.92361e-10 0.000284412 2.68838e-14)
(-1.93916e-10 0.000286541 5.08486e-14)
(-1.95761e-10 0.000288776 5.08419e-14)
(-1.97589e-10 0.000291012 5.09751e-14)
(-1.99167e-10 0.000293141 2.70597e-14)
(-1.98384e-10 0.000293366 2.67812e-14)
(-1.99983e-10 0.000295495 5.09613e-14)
(-2.01764e-10 0.000297731 5.06936e-14)
(-2.03684e-10 0.000299966 5.11371e-14)
(-2.05132e-10 0.000302095 2.68423e-14)
(-2.04531e-10 0.00030232 2.70449e-14)
(-2.0588e-10 0.00030445 5.06317e-14)
(-2.08002e-10 0.000306685 5.13493e-14)
(-2.09491e-10 0.000308923 5.13746e-14)
(-2.11615e-10 0.000311159 5.08777e-14)
(-2.12966e-10 0.000313288 2.71822e-14)
(-2.12362e-10 0.000313513 2.67741e-14)
(-2.1381e-10 0.000315643 5.1018e-14)
(-2.15728e-10 0.000317878 5.07995e-14)
(-2.17512e-10 0.000320113 5.10971e-14)
(-2.19112e-10 0.000322242 2.70069e-14)
(-2.18327e-10 0.000322468 2.68855e-14)
(-2.19905e-10 0.000324597 5.09383e-14)
(-2.21731e-10 0.000326832 5.08338e-14)
(-2.23579e-10 0.000329068 5.10685e-14)
(-2.25134e-10 0.000331197 2.70024e-14)
(-2.2438e-10 0.000331422 2.68943e-14)
(-2.25938e-10 0.000333551 5.09119e-14)
(-2.27777e-10 0.000335787 5.0853e-14)
(-2.29617e-10 0.000338022 5.10279e-14)
(-2.31177e-10 0.000340151 2.7031e-14)
(-2.3042e-10 0.000340376 2.68557e-14)
(-2.3198e-10 0.000342506 5.09438e-14)
(-2.33818e-10 0.000344741 5.08075e-14)
(-2.35658e-10 0.000346976 5.10578e-14)
(-2.37218e-10 0.000349106 2.69869e-14)
(-2.36461e-10 0.000349331 2.6892e-14)
(-2.38021e-10 0.00035146 5.09002e-14)
(-2.39859e-10 0.000353695 5.08386e-14)
(-2.41699e-10 0.000355931 5.1012e-14)
(-2.43259e-10 0.00035806 2.70191e-14)
(-2.42503e-10 0.000358285 2.68528e-14)
(-2.44062e-10 0.000360414 5.09324e-14)
(-2.459e-10 0.00036265 5.07944e-14)
(-2.47741e-10 0.000364885 5.10426e-14)
(-2.49299e-10 0.000367014 2.69744e-14)
(-2.48546e-10 0.000367239 2.68928e-14)
(-2.501e-10 0.000369369 5.08824e-14)
(-2.51946e-10 0.000371604 5.0838e-14)
(-2.53774e-10 0.000373839 5.09786e-14)
(-2.55352e-10 0.000375969 2.70355e-14)
(-2.54569e-10 0.000376194 2.68123e-14)
(-2.56168e-10 0.000378323 5.0974e-14)
(-2.57949e-10 0.000380558 5.07125e-14)
(-2.59869e-10 0.000382794 5.1122e-14)
(-2.61317e-10 0.000384923 2.68402e-14)
(-2.60716e-10 0.000385148 2.70559e-14)
(-2.62065e-10 0.000387277 5.06644e-14)
(-2.64187e-10 0.000389513 5.13503e-14)
(-2.65677e-10 0.000391751 5.13783e-14)
(-2.678e-10 0.000393986 5.08508e-14)
(-2.69151e-10 0.000396116 2.71727e-14)
(-2.68547e-10 0.000396341 2.67778e-14)
(-2.69995e-10 0.00039847 5.10355e-14)
(-2.71914e-10 0.000400705 5.07878e-14)
(-2.73697e-10 0.000402941 5.10895e-14)
(-2.75297e-10 0.00040507 2.69825e-14)
(-2.74513e-10 0.000405295 2.69059e-14)
(-2.7609e-10 0.000407424 5.09408e-14)
(-2.77917e-10 0.00040966 5.08397e-14)
(-2.79765e-10 0.000411895 5.10475e-14)
(-2.8132e-10 0.000414024 2.6995e-14)
(-2.80566e-10 0.00041425 2.68998e-14)
(-2.82124e-10 0.000416379 5.09303e-14)
(-2.83963e-10 0.000418614 5.08459e-14)
(-2.85803e-10 0.000420849 5.10234e-14)
(-2.87363e-10 0.000422979 2.70111e-14)
(-2.86606e-10 0.000423204 2.68752e-14)
(-2.88166e-10 0.000425333 5.09495e-14)
(-2.90004e-10 0.000427568 5.08152e-14)
(-2.91844e-10 0.000429804 5.10421e-14)
(-2.93404e-10 0.000431933 2.69812e-14)
(-2.92648e-10 0.000432158 2.6899e-14)
(-2.94207e-10 0.000434287 5.09192e-14)
(-2.96046e-10 0.000436523 5.08352e-14)
(-2.97885e-10 0.000438758 5.10102e-14)
(-2.99445e-10 0.000440888 2.70025e-14)
(-2.98689e-10 0.000441113 2.6872e-14)
(-3.00248e-10 0.000443242 5.09396e-14)
(-3.02087e-10 0.000445477 5.08052e-14)
(-3.03926e-10 0.000447712 5.10285e-14)
(-3.05487e-10 0.000449842 2.69745e-14)
(-3.0473e-10 0.000450067 2.6894e-14)
(-3.0629e-10 0.000452196 5.09121e-14)
(-3.08128e-10 0.000454431 5.08224e-14)
(-3.09968e-10 0.000456667 5.10014e-14)
(-3.11527e-10 0.000458796 2.69901e-14)
(-3.10774e-10 0.000459021 2.68757e-14)
(-3.12328e-10 0.000461151 5.0921e-14)
(-3.14174e-10 0.000463386 5.08096e-14)
(-3.16001e-10 0.000465621 5.09964e-14)
(-3.1758e-10 0.000467751 2.69957e-14)
(-3.16797e-10 0.000467976 2.68515e-14)
(-3.18396e-10 0.000470105 5.09575e-14)
(-3.20177e-10 0.00047234 5.07407e-14)
(-3.22097e-10 0.000474576 5.10864e-14)
(-3.23545e-10 0.000476705 2.6856e-14)
(-3.22944e-10 0.00047693 2.70412e-14)
(-3.24293e-10 0.000479059 5.07021e-14)
(-3.26415e-10 0.000481295 5.13263e-14)
(-3.27905e-10 0.000483533 5.13953e-14)
(-3.30028e-10 0.000485768 5.08073e-14)
(-3.31379e-10 0.000487898 2.71827e-14)
(-3.30775e-10 0.000488123 2.67587e-14)
(-3.32224e-10 0.000490252 5.10623e-14)
(-3.34142e-10 0.000492487 5.07554e-14)
(-3.35925e-10 0.000494723 5.10982e-14)
(-3.37525e-10 0.000496852 2.69435e-14)
(-3.36741e-10 0.000497077 2.6937e-14)
(-3.38319e-10 0.000499206 5.09189e-14)
(-3.40146e-10 0.000501442 5.08579e-14)
(-3.41993e-10 0.000503677 5.10088e-14)
(-3.43549e-10 0.000505806 2.70058e-14)
(-3.42795e-10 0.000506032 2.68827e-14)
(-3.44352e-10 0.000508161 5.09574e-14)
(-3.46192e-10 0.000510396 5.08175e-14)
(-3.48031e-10 0.000512631 5.10337e-14)
(-3.49592e-10 0.000514761 2.69757e-14)
(-3.48835e-10 0.000514986 2.69052e-14)
(-3.50394e-10 0.000517115 5.09308e-14)
(-3.52233e-10 0.00051935 5.08343e-14)
(-3.54073e-10 0.000521586 5.10078e-14)
(-3.55633e-10 0.000523715 2.69926e-14)
(-3.54876e-10 0.00052394 2.68838e-14)
(-3.56436e-10 0.000526069 5.09464e-14)
(-3.58274e-10 0.000528305 5.08104e-14)
(-3.60114e-10 0.00053054 5.10218e-14)
(-3.61674e-10 0.000532669 2.69705e-14)
(-3.60918e-10 0.000532895 2.69008e-14)
(-3.62477e-10 0.000535024 5.09245e-14)
(-3.64315e-10 0.000537259 5.08234e-14)
(-3.66156e-10 0.000539494 5.10007e-14)
(-3.67714e-10 0.000541624 2.69819e-14)
(-3.66961e-10 0.000541849 2.68872e-14)
(-3.68516e-10 0.000543978 5.09292e-14)
(-3.70362e-10 0.000546213 5.08159e-14)
(-3.72189e-10 0.000548449 5.0992e-14)
(-3.73768e-10 0.000550578 2.69927e-14)
(-3.72984e-10 0.000550803 2.68588e-14)
(-3.74584e-10 0.000552932 5.09704e-14)
(-3.76365e-10 0.000555168 5.07433e-14)
(-3.78285e-10 0.000557403 5.10871e-14)
(-3.79733e-10 0.000559533 2.68494e-14)
(-3.79131e-10 0.000559758 2.70527e-14)
(-3.80481e-10 0.000561887 5.07112e-14)
(-3.82603e-10 0.000564122 5.13336e-14)
(-3.84093e-10 0.000566361 5.13919e-14)
(-3.86216e-10 0.000568596 5.0802e-14)
(-3.87567e-10 0.000570725 2.71733e-14)
(-3.86963e-10 0.000570951 2.67664e-14)
(-3.88411e-10 0.00057308 5.10655e-14)
(-3.9033e-10 0.000575315 5.07564e-14)
(-3.92113e-10 0.00057755 5.10903e-14)
(-3.93713e-10 0.00057968 2.69382e-14)
(-3.92929e-10 0.000579905 2.69415e-14)
(-3.94507e-10 0.000582034 5.0926e-14)
(-3.96334e-10 0.000584269 5.08564e-14)
(-3.98181e-10 0.000586505 5.1005e-14)
(-3.99736e-10 0.000588634 2.6998e-14)
(-3.98982e-10 0.000588859 2.68905e-14)
(-4.0054e-10 0.000590988 5.09619e-14)
(-4.0238e-10 0.000593224 5.08197e-14)
(-4.04219e-10 0.000595459 5.10278e-14)
(-4.0578e-10 0.000597588 2.69713e-14)
(-4.05023e-10 0.000597814 2.69103e-14)
(-4.06582e-10 0.000599943 5.09386e-14)
(-4.08421e-10 0.000602178 5.08343e-14)
(-4.10261e-10 0.000604413 5.10054e-14)
(-4.11821e-10 0.000606543 2.69861e-14)
(-4.11064e-10 0.000606768 2.68916e-14)
(-4.12624e-10 0.000608897 5.09521e-14)
(-4.14463e-10 0.000611132 5.08135e-14)
(-4.16302e-10 0.000613368 5.10178e-14)
(-4.17862e-10 0.000615497 2.69667e-14)
(-4.17106e-10 0.000615722 2.69068e-14)
(-4.18665e-10 0.000617851 5.0932e-14)
(-4.20504e-10 0.000620087 5.08264e-14)
(-4.22343e-10 0.000622322 5.09968e-14)
(-4.23904e-10 0.000624451 2.6981e-14)
(-4.23147e-10 0.000624677 2.68883e-14)
(-4.24707e-10 0.000626806 5.09462e-14)
(-4.26545e-10 0.000629041 5.08045e-14)
(-4.28385e-10 0.000631276 5.10118e-14)
(-4.29944e-10 0.000633406 2.69577e-14)
(-4.29191e-10 0.000633631 2.69101e-14)
(-4.30745e-10 0.00063576 5.09163e-14)
(-4.32592e-10 0.000637995 5.08327e-14)
(-4.34419e-10 0.000640231 5.0969e-14)
(-4.35997e-10 0.00064236 2.70038e-14)
(-4.35214e-10 0.000642585 2.68471e-14)
(-4.36813e-10 0.000644714 5.09926e-14)
(-4.38595e-10 0.00064695 5.07261e-14)
(-4.40515e-10 0.000649185 5.10994e-14)
(-4.41963e-10 0.000651314 2.68265e-14)
(-4.41361e-10 0.00065154 2.70755e-14)
(-4.4271e-10 0.000653669 5.06995e-14)
(-4.44833e-10 0.000655904 5.13511e-14)
(-4.46322e-10 0.000658143 5.137e-14)
(-4.48446e-10 0.000660378 5.08094e-14)
(-4.49796e-10 0.000662507 2.71483e-14)
(-4.49193e-10 0.000662733 2.67862e-14)
(-4.50641e-10 0.000664862 5.1049e-14)
(-4.5256e-10 0.000667097 5.07689e-14)
(-4.54343e-10 0.000669332 5.10647e-14)
(-4.55943e-10 0.000671462 2.69473e-14)
(-4.55159e-10 0.000671687 2.6928e-14)
(-4.56737e-10 0.000673816 5.09435e-14)
(-4.58563e-10 0.000676051 5.08361e-14)
(-4.60411e-10 0.000678287 5.10135e-14)
(-4.61966e-10 0.000680416 2.69743e-14)
(-4.61212e-10 0.000680641 2.69103e-14)
(-4.6277e-10 0.00068277 5.09467e-14)
(-4.6461e-10 0.000685006 5.08331e-14)
(-4.66449e-10 0.000687241 5.1004e-14)
(-4.6801e-10 0.00068937 2.6981e-14)
(-4.67253e-10 0.000689596 2.68974e-14)
(-4.68812e-10 0.000691725 5.09567e-14)
(-4.70651e-10 0.00069396 5.08155e-14)
(-4.72491e-10 0.000696195 5.1015e-14)
(-4.74051e-10 0.000698325 2.69636e-14)
(-4.73294e-10 0.00069855 2.69115e-14)
(-4.74854e-10 0.000700679 5.0938e-14)
(-4.76692e-10 0.000702914 5.08278e-14)
(-4.78532e-10 0.00070515 5.09955e-14)
(-4.80092e-10 0.000707279 2.69773e-14)
(-4.79336e-10 0.000707504 2.6894e-14)
(-4.80895e-10 0.000709633 5.09517e-14)
(-4.82734e-10 0.000711869 5.08072e-14)
(-4.84574e-10 0.000714104 5.10102e-14)
(-4.86132e-10 0.000716233 2.69552e-14)
(-4.85379e-10 0.000716459 2.69151e-14)
(-4.86934e-10 0.000718588 5.09228e-14)
(-4.8878e-10 0.000720823 5.0835e-14)
(-4.90607e-10 0.000723058 5.09687e-14)
(-4.92186e-10 0.000725188 2.70008e-14)
(-4.91402e-10 0.000725413 2.68528e-14)
(-4.93002e-10 0.000727542 5.09987e-14)
(-4.94783e-10 0.000729777 5.07295e-14)
(-4.96703e-10 0.000732013 5.10988e-14)
(-4.98151e-10 0.000734142 2.68245e-14)
(-4.9755e-10 0.000734367 2.70808e-14)
(-4.98899e-10 0.000736496 5.07064e-14)
(-5.01022e-10 0.000738732 5.13543e-14)
(-5.02511e-10 0.00074097 5.13698e-14)
(-5.04634e-10 0.000743206 5.08056e-14)
(-5.05985e-10 0.000745335 2.71445e-14)
(-5.05382e-10 0.00074556 2.67896e-14)
(-5.0683e-10 0.000747689 5.10525e-14)
(-5.08749e-10 0.000749925 5.07687e-14)
(-5.10532e-10 0.00075216 5.10618e-14)
(-5.12132e-10 0.000754289 2.69434e-14)
(-5.11347e-10 0.000754515 2.69319e-14)
(-5.12925e-10 0.000756644 5.09468e-14)
(-5.14752e-10 0.000758879 5.08368e-14)
(-5.166e-10 0.000761114 5.10107e-14)
(-5.18155e-10 0.000763244 2.69711e-14)
(-5.17401e-10 0.000763469 2.6914e-14)
(-5.18959e-10 0.000765598 5.09508e-14)
(-5.20799e-10 0.000767833 5.08338e-14)
(-5.22638e-10 0.000770069 5.1002e-14)
(-5.24198e-10 0.000772198 2.69778e-14)
(-5.23441e-10 0.000772423 2.69015e-14)
(-5.25001e-10 0.000774552 5.09607e-14)
(-5.2684e-10 0.000776788 5.08168e-14)
(-5.28679e-10 0.000779023 5.10131e-14)
(-5.3024e-10 0.000781152 2.69609e-14)
(-5.29483e-10 0.000781378 2.69155e-14)
(-5.31043e-10 0.000783507 5.09426e-14)
(-5.32881e-10 0.000785742 5.08292e-14)
(-5.34721e-10 0.000787977 5.09944e-14)
(-5.36281e-10 0.000790107 2.69744e-14)
(-5.35524e-10 0.000790332 2.68987e-14)
(-5.37084e-10 0.000792461 5.09554e-14)
(-5.38923e-10 0.000794696 5.08108e-14)
(-5.40762e-10 0.000796932 5.10065e-14)
(-5.42322e-10 0.000799061 2.69573e-14)
(-5.41566e-10 0.000799286 2.69125e-14)
(-5.43126e-10 0.000801415 5.09381e-14)
(-5.44964e-10 0.000803651 5.08218e-14)
(-5.46804e-10 0.000805886 5.09905e-14)
(-5.48363e-10 0.000808015 2.69666e-14)
(-5.47609e-10 0.000808241 2.69026e-14)
(-5.49164e-10 0.00081037 5.09407e-14)
(-5.51011e-10 0.000812605 5.08188e-14)
(-5.52838e-10 0.00081484 5.09805e-14)
(-5.54416e-10 0.00081697 2.69814e-14)
(-5.53633e-10 0.000817195 2.68716e-14)
(-5.55232e-10 0.000819324 5.09858e-14)
(-5.57014e-10 0.000821559 5.07447e-14)
(-5.58934e-10 0.000823795 5.108e-14)
(-5.60381e-10 0.000825924 2.68364e-14)
(-5.5978e-10 0.000826149 2.70686e-14)
(-5.61129e-10 0.000828278 5.07248e-14)
(-5.63252e-10 0.000830514 5.13388e-14)
(-5.64741e-10 0.000832752 5.1382e-14)
(-5.66865e-10 0.000834988 5.07839e-14)
(-5.68215e-10 0.000837117 2.71549e-14)
(-5.67612e-10 0.000837342 2.67757e-14)
(-5.6906e-10 0.000839471 5.10679e-14)
(-5.70979e-10 0.000841707 5.07502e-14)
(-5.72762e-10 0.000843942 5.10717e-14)
(-5.74362e-10 0.000846071 2.69231e-14)
(-5.73578e-10 0.000846297 2.69493e-14)
(-5.75156e-10 0.000848426 5.09314e-14)
(-5.76982e-10 0.000850661 5.08498e-14)
(-5.7883e-10 0.000852896 5.09898e-14)
(-5.80385e-10 0.000855026 2.69822e-14)
(-5.79631e-10 0.000855251 2.69003e-14)
(-5.81189e-10 0.00085738 5.09669e-14)
(-5.83029e-10 0.000859615 5.0816e-14)
(-5.84868e-10 0.000861851 5.10128e-14)
(-5.86429e-10 0.00086398 2.6958e-14)
(-5.85672e-10 0.000864205 2.69192e-14)
(-5.87231e-10 0.000866334 5.09459e-14)
(-5.8907e-10 0.00086857 5.08306e-14)
(-5.9091e-10 0.000870805 5.09931e-14)
(-5.9247e-10 0.000872934 2.69725e-14)
(-5.91713e-10 0.00087316 2.69019e-14)
(-5.93273e-10 0.000875289 5.09593e-14)
(-5.95112e-10 0.000877524 5.08121e-14)
(-5.96951e-10 0.000879759 5.10059e-14)
(-5.98511e-10 0.000881889 2.69553e-14)
(-5.97755e-10 0.000882114 2.69161e-14)
(-5.99315e-10 0.000884243 5.0942e-14)
(-6.01153e-10 0.000886478 5.08237e-14)
(-6.02993e-10 0.000888714 5.09899e-14)
(-6.04552e-10 0.000890843 2.69651e-14)
(-6.03798e-10 0.000891068 2.69059e-14)
(-6.05353e-10 0.000893197 5.09452e-14)
(-6.072e-10 0.000895433 5.08206e-14)
(-6.09027e-10 0.000897668 5.09806e-14)
(-6.10605e-10 0.000899797 2.69797e-14)
(-6.09822e-10 0.000900023 2.68754e-14)
(-6.11421e-10 0.000902152 5.099e-14)
(-6.13203e-10 0.000904387 5.07472e-14)
(-6.15123e-10 0.000906622 5.10799e-14)
(-6.1657e-10 0.000908752 2.68353e-14)
(-6.15969e-10 0.000908977 2.7072e-14)
(-6.17318e-10 0.000911106 5.07295e-14)
(-6.19441e-10 0.000913341 5.13411e-14)
(-6.2093e-10 0.00091558 5.13823e-14)
(-6.23054e-10 0.000917815 5.07817e-14)
(-6.24404e-10 0.000919945 2.71527e-14)
(-6.23801e-10 0.00092017 2.6778e-14)
(-6.25249e-10 0.000922299 5.10705e-14)
(-6.27168e-10 0.000924534 5.07502e-14)
(-6.28951e-10 0.000926769 5.10702e-14)
(-6.30551e-10 0.000928899 2.69206e-14)
(-6.29767e-10 0.000929124 2.69521e-14)
(-6.31345e-10 0.000931253 5.09337e-14)
(-6.33172e-10 0.000933488 5.08506e-14)
(-6.35019e-10 0.000935724 5.09881e-14)
(-6.36574e-10 0.000937853 2.69805e-14)
(-6.3582e-10 0.000938079 2.69026e-14)
(-6.37378e-10 0.000940207 5.09699e-14)
(-6.39218e-10 0.000942443 5.08165e-14)
(-6.41057e-10 0.000944678 5.10119e-14)
(-6.42618e-10 0.000946808 2.69558e-14)
(-6.41861e-10 0.000947033 2.69222e-14)
(-6.43421e-10 0.000949162 5.09486e-14)
(-6.45259e-10 0.000951397 5.08319e-14)
(-6.47099e-10 0.000953632 5.09919e-14)
(-6.48659e-10 0.000955762 2.69711e-14)
(-6.47902e-10 0.000955987 2.69044e-14)
(-6.49462e-10 0.000958116 5.09628e-14)
(-6.51301e-10 0.000960351 5.0813e-14)
(-6.5314e-10 0.000962587 5.10057e-14)
(-6.547e-10 0.000964716 2.69532e-14)
(-6.53944e-10 0.000964942 2.69198e-14)
(-6.55504e-10 0.000967071 5.0944e-14)
(-6.57342e-10 0.000969306 5.08271e-14)
(-6.59182e-10 0.000971541 5.09864e-14)
(-6.60742e-10 0.000973671 2.69684e-14)
(-6.59985e-10 0.000973896 2.69017e-14)
(-6.61545e-10 0.000976025 5.09593e-14)
(-6.63383e-10 0.00097826 5.08065e-14)
(-6.65224e-10 0.000980496 5.10032e-14)
(-6.66782e-10 0.000982625 2.6946e-14)
(-6.66029e-10 0.00098285 2.69241e-14)
(-6.67584e-10 0.000984979 5.09302e-14)
(-6.6943e-10 0.000987214 5.08362e-14)
(-6.71257e-10 0.00098945 5.09616e-14)
(-6.72836e-10 0.000991579 2.69934e-14)
(-6.72052e-10 0.000991805 2.6861e-14)
(-6.73652e-10 0.000993934 5.10079e-14)
(-6.75433e-10 0.000996169 5.07304e-14)
(-6.77353e-10 0.000998404 5.10939e-14)
(-6.78801e-10 0.00100053 2.68164e-14)
(-6.78199e-10 0.00100076 2.70906e-14)
(-6.79549e-10 0.00100289 5.07148e-14)
(-6.81671e-10 0.00100512 5.13574e-14)
(-6.83161e-10 0.00100736 5.13633e-14)
(-6.85284e-10 0.0010096 5.07939e-14)
(-6.86635e-10 0.00101173 2.71327e-14)
(-6.86032e-10 0.00101195 2.67955e-14)
(-6.8748e-10 0.00101408 5.10537e-14)
(-6.89399e-10 0.00101632 5.07646e-14)
(-6.91182e-10 0.00101855 5.10496e-14)
(-6.92781e-10 0.00102068 2.69338e-14)
(-6.91997e-10 0.00102091 2.69366e-14)
(-6.93575e-10 0.00102304 5.09503e-14)
(-6.95402e-10 0.00102527 5.08321e-14)
(-6.97249e-10 0.00102751 5.1001e-14)
(-6.98805e-10 0.00102964 2.69606e-14)
(-6.98051e-10 0.00102986 2.69205e-14)
(-6.99609e-10 0.00103199 5.09534e-14)
(-7.01449e-10 0.00103422 5.08316e-14)
(-7.03288e-10 0.00103646 5.09917e-14)
(-7.04848e-10 0.00103859 2.69696e-14)
(-7.04091e-10 0.00103881 2.69067e-14)
(-7.05651e-10 0.00104094 5.09657e-14)
(-7.0749e-10 0.00104318 5.08137e-14)
(-7.09329e-10 0.00104541 5.10055e-14)
(-7.1089e-10 0.00104754 2.69515e-14)
(-7.10133e-10 0.00104777 2.69226e-14)
(-7.11693e-10 0.0010499 5.09465e-14)
(-7.13531e-10 0.00105213 5.08287e-14)
(-7.15371e-10 0.00105437 5.09857e-14)
(-7.16931e-10 0.0010565 2.69677e-14)
(-7.16174e-10 0.00105672 2.69038e-14)
(-7.17734e-10 0.00105885 5.09627e-14)
(-7.19573e-10 0.00106109 5.08075e-14)
(-7.21413e-10 0.00106332 5.10035e-14)
(-7.22971e-10 0.00106545 2.69446e-14)
(-7.22218e-10 0.00106568 2.6927e-14)
(-7.23773e-10 0.00106781 5.09329e-14)
(-7.25619e-10 0.00107004 5.08382e-14)
(-7.27446e-10 0.00107228 5.09613e-14)
(-7.29025e-10 0.00107441 2.69929e-14)
(-7.28241e-10 0.00107463 2.68632e-14)
(-7.29841e-10 0.00107676 5.10115e-14)
(-7.31623e-10 0.001079 5.07317e-14)
(-7.33542e-10 0.00108123 5.10946e-14)
(-7.3499e-10 0.00108336 2.68151e-14)
(-7.34388e-10 0.00108359 2.70937e-14)
(-7.35738e-10 0.00108572 5.07177e-14)
(-7.37861e-10 0.00108795 5.13597e-14)
(-7.3935e-10 0.00109019 5.13631e-14)
(-7.41473e-10 0.00109242 5.07931e-14)
(-7.42824e-10 0.00109455 2.71307e-14)
(-7.42221e-10 0.00109478 2.67978e-14)
(-7.43669e-10 0.00109691 5.10551e-14)
(-7.45588e-10 0.00109914 5.07655e-14)
(-7.47371e-10 0.00110138 5.10482e-14)
(-7.48971e-10 0.00110351 2.69328e-14)
(-7.48186e-10 0.00110373 2.6938e-14)
(-7.49765e-10 0.00110586 5.09527e-14)
(-7.51591e-10 0.0011081 5.08323e-14)
(-7.53439e-10 0.00111033 5.10006e-14)
(-7.54994e-10 0.00111246 2.69589e-14)
(-7.5424e-10 0.00111269 2.69229e-14)
(-7.55798e-10 0.00111482 5.09551e-14)
(-7.57638e-10 0.00111705 5.08327e-14)
(-7.59477e-10 0.00111929 5.09907e-14)
(-7.61037e-10 0.00112142 2.69688e-14)
(-7.60281e-10 0.00112164 2.69083e-14)
(-7.6184e-10 0.00112377 5.09684e-14)
(-7.63679e-10 0.00112601 5.08142e-14)
(-7.65519e-10 0.00112824 5.10055e-14)
(-7.67079e-10 0.00113037 2.69499e-14)
(-7.66322e-10 0.0011306 2.69252e-14)
(-7.67882e-10 0.00113273 5.09484e-14)
(-7.69721e-10 0.00113496 5.08302e-14)
(-7.7156e-10 0.0011372 5.09851e-14)
(-7.7312e-10 0.00113933 2.69669e-14)
(-7.72364e-10 0.00113955 2.6906e-14)
(-7.73923e-10 0.00114168 5.09647e-14)
(-7.75762e-10 0.00114392 5.08099e-14)
(-7.77602e-10 0.00114615 5.10011e-14)
(-7.79162e-10 0.00114828 2.69476e-14)
(-7.78405e-10 0.00114851 2.69229e-14)
(-7.79965e-10 0.00115063 5.09454e-14)
(-7.81803e-10 0.00115287 5.08246e-14)
(-7.83644e-10 0.00115511 5.09833e-14)
(-7.85202e-10 0.00115723 2.69604e-14)
(-7.84449e-10 0.00115746 2.69103e-14)
(-7.86003e-10 0.00115959 5.09517e-14)
(-7.8785e-10 0.00116182 5.08196e-14)
(-7.89677e-10 0.00116406 5.09772e-14)
(-7.91256e-10 0.00116619 2.69728e-14)
(-7.90472e-10 0.00116641 2.68826e-14)
(-7.92072e-10 0.00116854 5.09944e-14)
(-7.93853e-10 0.00117078 5.07493e-14)
(-7.95773e-10 0.00117301 5.10746e-14)
(-7.97221e-10 0.00117514 2.68314e-14)
(-7.96619e-10 0.00117537 2.70769e-14)
(-7.97969e-10 0.0011775 5.07369e-14)
(-8.00091e-10 0.00117973 5.13412e-14)
(-8.01581e-10 0.00118197 5.13795e-14)
(-8.03704e-10 0.00118421 5.07717e-14)
(-8.05055e-10 0.00118634 2.71463e-14)
(-8.04452e-10 0.00118656 2.67801e-14)
(-8.059e-10 0.00118869 5.1073e-14)
(-8.07819e-10 0.00119093 5.07454e-14)
(-8.09601e-10 0.00119316 5.10635e-14)
(-8.11201e-10 0.00119529 2.6912e-14)
(-8.10417e-10 0.00119552 2.69571e-14)
(-8.11995e-10 0.00119764 5.09341e-14)
(-8.13822e-10 0.00119988 5.08492e-14)
(-8.15669e-10 0.00120212 5.09793e-14)
(-8.17225e-10 0.00120424 2.6975e-14)
(-8.16471e-10 0.00120447 2.69052e-14)
(-8.18029e-10 0.0012066 5.09736e-14)
(-8.19869e-10 0.00120883 5.08129e-14)
(-8.21708e-10 0.00121107 5.10066e-14)
(-8.23268e-10 0.0012132 2.6948e-14)
(-8.22511e-10 0.00121342 2.69277e-14)
(-8.24071e-10 0.00121555 5.09499e-14)
(-8.2591e-10 0.00121779 5.08317e-14)
(-8.27749e-10 0.00122002 5.09844e-14)
(-8.29309e-10 0.00122215 2.69665e-14)
(-8.28553e-10 0.00122238 2.69074e-14)
(-8.30113e-10 0.00122451 5.09674e-14)
(-8.31952e-10 0.00122674 5.08105e-14)
(-8.33791e-10 0.00122898 5.10015e-14)
(-8.35351e-10 0.00123111 2.69463e-14)
(-8.34594e-10 0.00123133 2.69253e-14)
(-8.36154e-10 0.00123346 5.09472e-14)
(-8.37993e-10 0.0012357 5.08263e-14)
(-8.39833e-10 0.00123793 5.09829e-14)
(-8.41391e-10 0.00124006 2.69602e-14)
(-8.40638e-10 0.00124029 2.69118e-14)
(-8.42193e-10 0.00124242 5.09546e-14)
(-8.44039e-10 0.00124465 5.08204e-14)
(-8.45866e-10 0.00124689 5.0978e-14)
(-8.47445e-10 0.00124902 2.69717e-14)
(-8.46661e-10 0.00124924 2.68851e-14)
(-8.48261e-10 0.00125137 5.09964e-14)
(-8.50042e-10 0.00125361 5.07513e-14)
(-8.51962e-10 0.00125584 5.10745e-14)
(-8.5341e-10 0.00125797 2.68314e-14)
(-8.52808e-10 0.0012582 2.70785e-14)
(-8.54158e-10 0.00126033 5.074e-14)
(-8.56281e-10 0.00126256 5.13423e-14)
(-8.5777e-10 0.0012648 5.13803e-14)
(-8.59893e-10 0.00126703 5.07704e-14)
(-8.61244e-10 0.00126916 2.71458e-14)
(-8.60641e-10 0.00126939 2.6781e-14)
(-8.62089e-10 0.00127152 5.1075e-14)
(-8.64008e-10 0.00127375 5.07454e-14)
(-8.65791e-10 0.00127599 5.10634e-14)
(-8.67391e-10 0.00127812 2.69105e-14)
(-8.66606e-10 0.00127834 2.69591e-14)
(-8.68185e-10 0.00128047 5.09352e-14)
(-8.70011e-10 0.00128271 5.08503e-14)
(-8.71859e-10 0.00128494 5.09784e-14)
(-8.73414e-10 0.00128707 2.69747e-14)
(-8.7266e-10 0.0012873 2.69062e-14)
(-8.74218e-10 0.00128943 5.09758e-14)
(-8.76058e-10 0.00129166 5.0813e-14)
(-8.77897e-10 0.0012939 5.10068e-14)
(-8.79457e-10 0.00129603 2.69467e-14)
(-8.787e-10 0.00129625 2.69298e-14)
(-8.8026e-10 0.00129838 5.09512e-14)
(-8.82099e-10 0.00130062 5.0833e-14)
(-8.83939e-10 0.00130285 5.09837e-14)
(-8.85499e-10 0.00130498 2.69663e-14)
(-8.84742e-10 0.00130521 2.69084e-14)
(-8.86302e-10 0.00130734 5.09699e-14)
(-8.88141e-10 0.00130957 5.08109e-14)
(-8.8998e-10 0.00131181 5.10021e-14)
(-8.9154e-10 0.00131394 2.69449e-14)
(-8.90784e-10 0.00131416 2.6928e-14)
(-8.92343e-10 0.00131629 5.09478e-14)
(-8.94182e-10 0.00131852 5.08295e-14)
(-8.96022e-10 0.00132076 5.09797e-14)
(-8.97582e-10 0.00132289 2.69646e-14)
(-8.96825e-10 0.00132312 2.69062e-14)
(-8.98385e-10 0.00132524 5.09676e-14)
(-9.00223e-10 0.00132748 5.08056e-14)
(-9.02064e-10 0.00132971 5.10011e-14)
(-9.03622e-10 0.00133184 2.69386e-14)
(-9.02869e-10 0.00133207 2.69328e-14)
(-9.04423e-10 0.0013342 5.0935e-14)
(-9.0627e-10 0.00133643 5.08399e-14)
(-9.08097e-10 0.00133867 5.09562e-14)
(-9.09676e-10 0.0013408 2.69903e-14)
(-9.08892e-10 0.00134102 2.68659e-14)
(-9.10492e-10 0.00134315 5.10172e-14)
(-9.12273e-10 0.00134539 5.07306e-14)
(-9.14193e-10 0.00134762 5.10932e-14)
(-9.15641e-10 0.00134975 2.68097e-14)
(-9.15039e-10 0.00134998 2.70998e-14)
(-9.16389e-10 0.00135211 5.07204e-14)
(-9.18511e-10 0.00135434 5.13623e-14)
(-9.20001e-10 0.00135658 5.13584e-14)
(-9.22124e-10 0.00135882 5.07883e-14)
(-9.23475e-10 0.00136095 2.71233e-14)
(-9.22872e-10 0.00136117 2.68019e-14)