/*--------------------------------*- C++ -*----------------------------------*\
| =========                 |                                                 |
| \\      /  F ield         | OpenFOAM: The Open Source CFD Toolbox           |
|  \\    /   O peration     | Version:  2206                                  |
|   \\  /    A nd           | Website:  www.openfoam.com                      |
|    \\/     M anipulation  |                                                 |
\*---------------------------------------------------------------------------*/
FoamFile
{
    version     2.0;
    format      ascii;
    arch        "LSB;label=32;scalar=64";
    class       volVectorField;
    location    "50";
    object      U;
}
// * * * * * * * * * * * * * * * * * * * * * * * * * * * * * * * * * * * * * //

dimensions      [0 1 -1 0 0 0 0];

internalField   nonuniform List<vector> 
50000
(
(-2.11825e-12 2.38395e-06 3.14977e-12)
(7.97404e-12 6.18074e-06 1.11142e-12)
(2.50018e-13 1.00557e-05 -1.79363e-13)
(-5.07358e-12 1.39858e-05 -1.83724e-14)
(-5.76656e-12 1.79339e-05 -2.41229e-14)
(-8.04347e-12 2.18897e-05 1.37646e-13)
(-1.01321e-11 2.58496e-05 1.42992e-14)
(-1.28987e-11 2.9812e-05 7.14651e-14)
(-1.40927e-11 3.3776e-05 4.04781e-14)
(-1.64914e-11 3.7741e-05 7.48772e-14)
(-1.78457e-11 4.17069e-05 6.72389e-14)
(-1.99905e-11 4.56733e-05 7.89733e-14)
(-2.17819e-11 4.96401e-05 5.37857e-14)
(-2.3672e-11 5.36073e-05 7.41563e-14)
(-2.53937e-11 5.75748e-05 6.38727e-14)
(-2.72421e-11 6.15424e-05 7.34841e-14)
(-2.90954e-11 6.55103e-05 5.89706e-14)
(-3.08511e-11 6.94783e-05 7.44938e-14)
(-3.26635e-11 7.34464e-05 6.10177e-14)
(-3.4485e-11 7.74146e-05 7.11637e-14)
(-3.6241e-11 8.13829e-05 6.30828e-14)
(-3.8075e-11 8.53513e-05 6.95589e-14)
(-3.98312e-11 8.93197e-05 6.36805e-14)
(-4.16495e-11 9.32882e-05 6.88494e-14)
(-4.34158e-11 9.72568e-05 6.39126e-14)
(-4.52208e-11 0.000101225 6.83262e-14)
(-4.69933e-11 0.000105194 6.40974e-14)
(-4.87902e-11 0.000109163 6.78823e-14)
(-5.05658e-11 0.000113131 6.42569e-14)
(-5.23577e-11 0.0001171 6.75092e-14)
(-5.41348e-11 0.000121069 6.43902e-14)
(-5.59234e-11 0.000125038 6.71989e-14)
(-5.77014e-11 0.000129007 6.44996e-14)
(-5.94876e-11 0.000132975 6.69415e-14)
(-6.12662e-11 0.000136944 6.45892e-14)
(-6.30506e-11 0.000140913 6.67269e-14)
(-6.48295e-11 0.000144882 6.46632e-14)
(-6.66127e-11 0.000148851 6.65469e-14)
(-6.83917e-11 0.00015282 6.47248e-14)
(-7.01738e-11 0.000156789 6.63947e-14)
(-7.19529e-11 0.000160758 6.47767e-14)
(-7.37343e-11 0.000164726 6.62653e-14)
(-7.55134e-11 0.000168695 6.48208e-14)
(-7.72943e-11 0.000172664 6.61545e-14)
(-7.90734e-11 0.000176633 6.48585e-14)
(-8.08537e-11 0.000180602 6.60591e-14)
(-8.26328e-11 0.000184571 6.4891e-14)
(-8.44128e-11 0.00018854 6.59765e-14)
(-8.61918e-11 0.000192509 6.49193e-14)
(-8.79715e-11 0.000196478 6.59046e-14)
(-8.97504e-11 0.000200447 6.4944e-14)
(-9.15299e-11 0.000204416 6.58417e-14)
(-9.33088e-11 0.000208385 6.49658e-14)
(-9.5088e-11 0.000212354 6.57864e-14)
(-9.68669e-11 0.000216323 6.49851e-14)
(-9.8646e-11 0.000220292 6.57376e-14)
(-1.00425e-10 0.000224261 6.50023e-14)
(-1.02204e-10 0.00022823 6.56942e-14)
(-1.03982e-10 0.000232199 6.50176e-14)
(-1.05761e-10 0.000236168 6.56556e-14)
(-1.0754e-10 0.000240137 6.50314e-14)
(-1.09319e-10 0.000244106 6.56211e-14)
(-1.11097e-10 0.000248076 6.50439e-14)
(-1.12876e-10 0.000252045 6.55901e-14)
(-1.14655e-10 0.000256014 6.50552e-14)
(-1.16433e-10 0.000259983 6.55622e-14)
(-1.18212e-10 0.000263952 6.50655e-14)
(-1.1999e-10 0.000267921 6.55369e-14)
(-1.21769e-10 0.00027189 6.50748e-14)
(-1.23547e-10 0.000275859 6.5514e-14)
(-1.25326e-10 0.000279828 6.50833e-14)
(-1.27104e-10 0.000283797 6.54932e-14)
(-1.28882e-10 0.000287766 6.50911e-14)
(-1.30661e-10 0.000291735 6.54742e-14)
(-1.32439e-10 0.000295704 6.50983e-14)
(-1.34218e-10 0.000299673 6.54568e-14)
(-1.35996e-10 0.000303642 6.51049e-14)
(-1.37774e-10 0.000307611 6.54409e-14)
(-1.39553e-10 0.00031158 6.51109e-14)
(-1.41331e-10 0.00031555 6.54263e-14)
(-1.43109e-10 0.000319519 6.51165e-14)
(-1.44887e-10 0.000323488 6.54128e-14)
(-1.46666e-10 0.000327457 6.51217e-14)
(-1.48444e-10 0.000331426 6.54004e-14)
(-1.50222e-10 0.000335395 6.51264e-14)
(-1.52e-10 0.000339364 6.53889e-14)
(-1.53779e-10 0.000343333 6.51308e-14)
(-1.55557e-10 0.000347302 6.53783e-14)
(-1.57335e-10 0.000351271 6.51349e-14)
(-1.59113e-10 0.00035524 6.53684e-14)
(-1.60891e-10 0.000359209 6.51387e-14)
(-1.62669e-10 0.000363179 6.53593e-14)
(-1.64448e-10 0.000367148 6.51423e-14)
(-1.66226e-10 0.000371117 6.53508e-14)
(-1.68004e-10 0.000375086 6.51456e-14)
(-1.69782e-10 0.000379055 6.53428e-14)
(-1.7156e-10 0.000383024 6.51487e-14)
(-1.73338e-10 0.000386993 6.53354e-14)
(-1.75116e-10 0.000390962 6.51515e-14)
(-1.76895e-10 0.000394931 6.53285e-14)
(-1.78673e-10 0.0003989 6.51542e-14)
(-1.80451e-10 0.000402869 6.5322e-14)
(-1.82229e-10 0.000406839 6.51567e-14)
(-1.84007e-10 0.000410808 6.53159e-14)
(-1.85785e-10 0.000414777 6.51591e-14)
(-1.87563e-10 0.000418746 6.53102e-14)
(-1.89341e-10 0.000422715 6.51613e-14)
(-1.91119e-10 0.000426684 6.53049e-14)
(-1.92897e-10 0.000430653 6.51634e-14)
(-1.94675e-10 0.000434622 6.52998e-14)
(-1.96453e-10 0.000438591 6.51653e-14)
(-1.98232e-10 0.00044256 6.52951e-14)
(-2.0001e-10 0.00044653 6.51672e-14)
(-2.01788e-10 0.000450499 6.52907e-14)
(-2.03566e-10 0.000454468 6.51689e-14)
(-2.05344e-10 0.000458437 6.52865e-14)
(-2.07122e-10 0.000462406 6.51705e-14)
(-2.089e-10 0.000466375 6.52825e-14)
(-2.10678e-10 0.000470344 6.51721e-14)
(-2.12456e-10 0.000474313 6.52787e-14)
(-2.14234e-10 0.000478282 6.51736e-14)
(-2.16012e-10 0.000482251 6.52752e-14)
(-2.1779e-10 0.000486221 6.51749e-14)
(-2.19568e-10 0.00049019 6.52718e-14)
(-2.21346e-10 0.000494159 6.51763e-14)
(-2.23124e-10 0.000498128 6.52686e-14)
(-2.24902e-10 0.000502097 6.51775e-14)
(-2.2668e-10 0.000506066 6.52656e-14)
(-2.28458e-10 0.000510035 6.51787e-14)
(-2.30236e-10 0.000514004 6.52628e-14)
(-2.32014e-10 0.000517973 6.51798e-14)
(-2.33792e-10 0.000521943 6.526e-14)
(-2.3557e-10 0.000525912 6.51809e-14)
(-2.37348e-10 0.000529881 6.52575e-14)
(-2.39126e-10 0.00053385 6.51819e-14)
(-2.40904e-10 0.000537819 6.5255e-14)
(-2.42682e-10 0.000541788 6.51829e-14)
(-2.4446e-10 0.000545757 6.52527e-14)
(-2.46238e-10 0.000549726 6.51838e-14)
(-2.48016e-10 0.000553695 6.52504e-14)
(-2.49794e-10 0.000557665 6.51846e-14)
(-2.51572e-10 0.000561634 6.52483e-14)
(-2.5335e-10 0.000565603 6.51855e-14)
(-2.55128e-10 0.000569572 6.52463e-14)
(-2.56906e-10 0.000573541 6.51863e-14)
(-2.58684e-10 0.00057751 6.52443e-14)
(-2.60462e-10 0.000581479 6.5187e-14)
(-2.6224e-10 0.000585448 6.52425e-14)
(-2.64018e-10 0.000589417 6.51878e-14)
(-2.65796e-10 0.000593387 6.52407e-14)
(-2.67574e-10 0.000597356 6.51885e-14)
(-2.69351e-10 0.000601325 6.5239e-14)
(-2.71129e-10 0.000605294 6.51891e-14)
(-2.72907e-10 0.000609263 6.52374e-14)
(-2.74685e-10 0.000613232 6.51898e-14)
(-2.76463e-10 0.000617201 6.52359e-14)
(-2.78241e-10 0.00062117 6.51904e-14)
(-2.80019e-10 0.000625139 6.52344e-14)
(-2.81797e-10 0.000629109 6.5191e-14)
(-2.83575e-10 0.000633078 6.5233e-14)
(-2.85353e-10 0.000637047 6.51915e-14)
(-2.87131e-10 0.000641016 6.52316e-14)
(-2.88909e-10 0.000644985 6.5192e-14)
(-2.90687e-10 0.000648954 6.52303e-14)
(-2.92465e-10 0.000652923 6.51926e-14)
(-2.94243e-10 0.000656892 6.52291e-14)
(-2.96021e-10 0.000660861 6.51931e-14)
(-2.97799e-10 0.000664831 6.52279e-14)
(-2.99577e-10 0.0006688 6.51935e-14)
(-3.01355e-10 0.000672769 6.52267e-14)
(-3.03133e-10 0.000676738 6.5194e-14)
(-3.0491e-10 0.000680707 6.52256e-14)
(-3.06688e-10 0.000684676 6.51944e-14)
(-3.08466e-10 0.000688645 6.52245e-14)
(-3.10244e-10 0.000692614 6.51948e-14)
(-3.12022e-10 0.000696584 6.52235e-14)
(-3.138e-10 0.000700553 6.51953e-14)
(-3.15578e-10 0.000704522 6.52225e-14)
(-3.17356e-10 0.000708491 6.51956e-14)
(-3.19134e-10 0.00071246 6.52216e-14)
(-3.20912e-10 0.000716429 6.5196e-14)
(-3.2269e-10 0.000720398 6.52207e-14)
(-3.24468e-10 0.000724367 6.51964e-14)
(-3.26246e-10 0.000728336 6.52198e-14)
(-3.28024e-10 0.000732306 6.51967e-14)
(-3.29802e-10 0.000736275 6.52189e-14)
(-3.3158e-10 0.000740244 6.51971e-14)
(-3.33357e-10 0.000744213 6.52181e-14)
(-3.35135e-10 0.000748182 6.51974e-14)
(-3.36913e-10 0.000752151 6.52173e-14)
(-3.38691e-10 0.00075612 6.51977e-14)
(-3.40469e-10 0.000760089 6.52166e-14)
(-3.42247e-10 0.000764059 6.5198e-14)
(-3.44025e-10 0.000768028 6.52158e-14)
(-3.45803e-10 0.000771997 6.51983e-14)
(-3.47581e-10 0.000775966 6.52151e-14)
(-3.49359e-10 0.000779935 6.51986e-14)
(-3.51137e-10 0.000783904 6.52144e-14)
(-3.52915e-10 0.000787873 6.51989e-14)
(-3.54693e-10 0.000791842 6.52138e-14)
(-3.56471e-10 0.000795811 6.51991e-14)
(-3.58248e-10 0.000799781 6.52131e-14)
(-3.60026e-10 0.00080375 6.51994e-14)
(-3.61804e-10 0.000807719 6.52125e-14)
(-3.63582e-10 0.000811688 6.51997e-14)
(-3.6536e-10 0.000815657 6.52119e-14)
(-3.67138e-10 0.000819626 6.51999e-14)
(-3.68916e-10 0.000823595 6.52113e-14)
(-3.70694e-10 0.000827564 6.52001e-14)
(-3.72472e-10 0.000831534 6.52108e-14)
(-3.7425e-10 0.000835503 6.52004e-14)
(-3.76028e-10 0.000839472 6.52102e-14)
(-3.77806e-10 0.000843441 6.52006e-14)
(-3.79583e-10 0.00084741 6.52097e-14)
(-3.81361e-10 0.000851379 6.52008e-14)
(-3.83139e-10 0.000855348 6.52092e-14)
(-3.84917e-10 0.000859317 6.5201e-14)
(-3.86695e-10 0.000863287 6.52087e-14)
(-3.88473e-10 0.000867256 6.52012e-14)
(-3.90251e-10 0.000871225 6.52082e-14)
(-3.92029e-10 0.000875194 6.52014e-14)
(-3.93807e-10 0.000879163 6.52077e-14)
(-3.95585e-10 0.000883132 6.52016e-14)
(-3.97363e-10 0.000887101 6.52073e-14)
(-3.99141e-10 0.00089107 6.52018e-14)
(-4.00919e-10 0.000895039 6.52068e-14)
(-4.02696e-10 0.000899009 6.5202e-14)
(-4.04474e-10 0.000902978 6.52064e-14)
(-4.06252e-10 0.000906947 6.52022e-14)
(-4.0803e-10 0.000910916 6.5206e-14)
(-4.09808e-10 0.000914885 6.52023e-14)
(-4.11586e-10 0.000918854 6.52056e-14)
(-4.13364e-10 0.000922823 6.52025e-14)
(-4.15142e-10 0.000926792 6.52052e-14)
(-4.1692e-10 0.000930762 6.52027e-14)
(-4.18698e-10 0.000934731 6.52048e-14)
(-4.20476e-10 0.0009387 6.52028e-14)
(-4.22253e-10 0.000942669 6.52044e-14)
(-4.24031e-10 0.000946638 6.5203e-14)
(-4.25809e-10 0.000950607 6.52041e-14)
(-4.27587e-10 0.000954576 6.52031e-14)
(-4.29365e-10 0.000958545 6.52037e-14)
(-4.31143e-10 0.000962515 6.52033e-14)
(-4.32921e-10 0.000966484 6.52034e-14)
(-4.34699e-10 0.000970453 6.52034e-14)
(-4.36477e-10 0.000974422 6.52031e-14)
(-4.38255e-10 0.000978391 6.52036e-14)
(-4.40033e-10 0.00098236 6.52027e-14)
(-4.41811e-10 0.000986329 6.52037e-14)
(-4.43588e-10 0.000990298 6.52024e-14)
(-4.45366e-10 0.000994268 6.52039e-14)
(-4.47144e-10 0.000998237 6.52021e-14)
(-4.48922e-10 0.00100221 6.5204e-14)
(-4.507e-10 0.00100617 6.52018e-14)
(-4.52478e-10 0.00101014 6.52041e-14)
(-4.54256e-10 0.00101411 6.52015e-14)
(-4.56034e-10 0.00101808 6.52043e-14)
(-4.57812e-10 0.00102205 6.52012e-14)
(-4.5959e-10 0.00102602 6.52044e-14)
(-4.61368e-10 0.00102999 6.52009e-14)
(-4.63145e-10 0.00103396 6.52045e-14)
(-4.64923e-10 0.00103793 6.52007e-14)
(-4.66701e-10 0.0010419 6.52046e-14)
(-4.68479e-10 0.00104587 6.52004e-14)
(-4.70257e-10 0.00104984 6.52047e-14)
(-4.72035e-10 0.0010538 6.52001e-14)
(-4.73813e-10 0.00105777 6.52049e-14)
(-4.75591e-10 0.00106174 6.51999e-14)
(-4.77369e-10 0.00106571 6.5205e-14)
(-4.79147e-10 0.00106968 6.51996e-14)
(-4.80925e-10 0.00107365 6.52051e-14)
(-4.82702e-10 0.00107762 6.51994e-14)
(-4.8448e-10 0.00108159 6.52052e-14)
(-4.86258e-10 0.00108556 6.51992e-14)
(-4.88036e-10 0.00108953 6.52053e-14)
(-4.89814e-10 0.0010935 6.51989e-14)
(-4.91592e-10 0.00109746 6.52054e-14)
(-4.9337e-10 0.00110143 6.51987e-14)
(-4.95148e-10 0.0011054 6.52055e-14)
(-4.96926e-10 0.00110937 6.51985e-14)
(-4.98704e-10 0.00111334 6.52056e-14)
(-5.00482e-10 0.00111731 6.51983e-14)
(-5.02259e-10 0.00112128 6.52057e-14)
(-5.04037e-10 0.00112525 6.5198e-14)
(-5.05815e-10 0.00112922 6.52058e-14)
(-5.07593e-10 0.00113319 6.51978e-14)
(-5.09371e-10 0.00113716 6.52059e-14)
(-5.11149e-10 0.00114113 6.51976e-14)
(-5.12927e-10 0.00114509 6.5206e-14)
(-5.14705e-10 0.00114906 6.51974e-14)
(-5.16483e-10 0.00115303 6.52061e-14)
(-5.18261e-10 0.001157 6.51972e-14)
(-5.20038e-10 0.00116097 6.52062e-14)
(-5.21816e-10 0.00116494 6.5197e-14)
(-5.23594e-10 0.00116891 6.52063e-14)
(-5.25372e-10 0.00117288 6.51969e-14)
(-5.2715e-10 0.00117685 6.52064e-14)
(-5.28928e-10 0.00118082 6.51967e-14)
(-5.30706e-10 0.00118479 6.52065e-14)
(-5.32484e-10 0.00118875 6.51965e-14)
(-5.34262e-10 0.00119272 6.52066e-14)
(-5.3604e-10 0.00119669 6.51963e-14)
(-5.37818e-10 0.00120066 6.52067e-14)
(-5.39595e-10 0.00120463 6.51961e-14)
(-5.41373e-10 0.0012086 6.52067e-14)
(-5.43151e-10 0.00121257 6.5196e-14)
(-5.44929e-10 0.00121654 6.52068e-14)
(-5.46707e-10 0.00122051 6.51958e-14)
(-5.48485e-10 0.00122448 6.52069e-14)
(-5.50263e-10 0.00122845 6.51956e-14)
(-5.52041e-10 0.00123241 6.5207e-14)
(-5.53819e-10 0.00123638 6.51955e-14)
(-5.55597e-10 0.00124035 6.52071e-14)
(-5.57375e-10 0.00124432 6.51953e-14)
(-5.59152e-10 0.00124829 6.52071e-14)
(-5.6093e-10 0.00125226 6.51952e-14)
(-5.62708e-10 0.00125623 6.52072e-14)
(-5.64486e-10 0.0012602 6.5195e-14)
(-5.66264e-10 0.00126417 6.52073e-14)
(-5.68042e-10 0.00126814 6.51949e-14)
(-5.6982e-10 0.00127211 6.52074e-14)
(-5.71598e-10 0.00127608 6.51947e-14)
(-5.73376e-10 0.00128004 6.52074e-14)
(-5.75154e-10 0.00128401 6.51946e-14)
(-5.76931e-10 0.00128798 6.52075e-14)
(-5.78709e-10 0.00129195 6.51944e-14)
(-5.80487e-10 0.00129592 6.52076e-14)
(-5.82265e-10 0.00129989 6.51943e-14)
(-5.84043e-10 0.00130386 6.52077e-14)
(-5.85821e-10 0.00130783 6.51942e-14)
(-5.87599e-10 0.0013118 6.52077e-14)
(-5.89377e-10 0.00131577 6.5194e-14)
(-5.91155e-10 0.00131974 6.52078e-14)
(-5.92933e-10 0.0013237 6.51939e-14)
(-5.9471e-10 0.00132767 6.52079e-14)
(-5.96488e-10 0.00133164 6.51937e-14)
(-5.98266e-10 0.00133561 6.5208e-14)
(-6.00044e-10 0.00133958 6.51936e-14)
(-6.01822e-10 0.00134355 6.5208e-14)
(-6.036e-10 0.00134752 6.51935e-14)
(-6.05378e-10 0.00135149 6.52081e-14)
(-6.07156e-10 0.00135546 6.51934e-14)
(-6.08934e-10 0.00135943 6.52082e-14)
(-6.10712e-10 0.0013634 6.51932e-14)
(-6.1249e-10 0.00136737 6.52082e-14)
(-6.14267e-10 0.00137133 6.51931e-14)
(-6.16045e-10 0.0013753 6.52083e-14)
(-6.17823e-10 0.00137927 6.5193e-14)
(-6.19601e-10 0.00138324 6.52084e-14)
(-6.21379e-10 0.00138721 6.51929e-14)
(-6.23157e-10 0.00139118 6.52084e-14)
(-6.24935e-10 0.00139515 6.51928e-14)
(-6.26713e-10 0.00139912 6.52085e-14)
(-6.28491e-10 0.00140309 6.51926e-14)
(-6.30269e-10 0.00140706 6.52086e-14)
(-6.32046e-10 0.00141103 6.51925e-14)
(-6.33824e-10 0.00141499 6.52086e-14)
(-6.35602e-10 0.00141896 6.51924e-14)
(-6.3738e-10 0.00142293 6.52087e-14)
(-6.39158e-10 0.0014269 6.51923e-14)
(-6.40936e-10 0.00143087 6.52087e-14)
(-6.42714e-10 0.00143484 6.51922e-14)
(-6.44492e-10 0.00143881 6.52088e-14)
(-6.4627e-10 0.00144278 6.51921e-14)
(-6.48048e-10 0.00144675 6.52089e-14)
(-6.49826e-10 0.00145072 6.5192e-14)
(-6.51603e-10 0.00145469 6.52089e-14)
(-6.53381e-10 0.00145866 6.51919e-14)
(-6.55159e-10 0.00146262 6.5209e-14)
(-6.56937e-10 0.00146659 6.51918e-14)
(-6.58715e-10 0.00147056 6.5209e-14)
(-6.60493e-10 0.00147453 6.51917e-14)
(-6.62271e-10 0.0014785 6.52091e-14)
(-6.64049e-10 0.00148247 6.51916e-14)
(-6.65827e-10 0.00148644 6.52092e-14)
(-6.67605e-10 0.00149041 6.51915e-14)
(-6.69382e-10 0.00149438 6.52092e-14)
(-6.7116e-10 0.00149835 6.51914e-14)
(-6.72938e-10 0.00150232 6.52093e-14)
(-6.74716e-10 0.00150628 6.51913e-14)
(-6.76494e-10 0.00151025 6.52093e-14)
(-6.78272e-10 0.00151422 6.51912e-14)
(-6.8005e-10 0.00151819 6.52094e-14)
(-6.81828e-10 0.00152216 6.51911e-14)
(-6.83606e-10 0.00152613 6.52095e-14)
(-6.85384e-10 0.0015301 6.5191e-14)
(-6.87161e-10 0.00153407 6.52095e-14)
(-6.88939e-10 0.00153804 6.51909e-14)
(-6.90717e-10 0.00154201 6.52096e-14)
(-6.92495e-10 0.00154598 6.51908e-14)
(-6.94273e-10 0.00154994 6.52096e-14)
(-6.96051e-10 0.00155391 6.51907e-14)
(-6.97829e-10 0.00155788 6.52097e-14)
(-6.99607e-10 0.00156185 6.51906e-14)
(-7.01385e-10 0.00156582 6.52097e-14)
(-7.03163e-10 0.00156979 6.51905e-14)
(-7.0494e-10 0.00157376 6.52098e-14)
(-7.06718e-10 0.00157773 6.51904e-14)
(-7.08496e-10 0.0015817 6.52098e-14)
(-7.10274e-10 0.00158567 6.51903e-14)
(-7.12052e-10 0.00158964 6.52099e-14)
(-7.1383e-10 0.00159361 6.51903e-14)
(-7.15608e-10 0.00159757 6.521e-14)
(-7.17386e-10 0.00160154 6.51902e-14)
(-7.19164e-10 0.00160551 6.521e-14)
(-7.20942e-10 0.00160948 6.51901e-14)
(-7.22719e-10 0.00161345 6.52101e-14)
(-7.24497e-10 0.00161742 6.519e-14)
(-7.26275e-10 0.00162139 6.52101e-14)
(-7.28053e-10 0.00162536 6.51899e-14)
(-7.29831e-10 0.00162933 6.52102e-14)
(-7.31609e-10 0.0016333 6.51898e-14)
(-7.33387e-10 0.00163727 6.52102e-14)
(-7.35165e-10 0.00164123 6.51897e-14)
(-7.36943e-10 0.0016452 6.52103e-14)
(-7.38721e-10 0.00164917 6.51897e-14)
(-7.40499e-10 0.00165314 6.52103e-14)
(-7.42276e-10 0.00165711 6.51896e-14)
(-7.44054e-10 0.00166108 6.52104e-14)
(-7.45832e-10 0.00166505 6.51895e-14)
(-7.4761e-10 0.00166902 6.52104e-14)
(-7.49388e-10 0.00167299 6.51894e-14)
(-7.51166e-10 0.00167696 6.52105e-14)
(-7.52944e-10 0.00168093 6.51893e-14)
(-7.54722e-10 0.0016849 6.52105e-14)
(-7.565e-10 0.00168886 6.51893e-14)
(-7.58278e-10 0.00169283 6.52106e-14)
(-7.60055e-10 0.0016968 6.51892e-14)
(-7.61833e-10 0.00170077 6.52106e-14)
(-7.63611e-10 0.00170474 6.51891e-14)
(-7.65389e-10 0.00170871 6.52107e-14)
(-7.67167e-10 0.00171268 6.5189e-14)
(-7.68945e-10 0.00171665 6.52107e-14)
(-7.70723e-10 0.00172062 6.5189e-14)
(-7.72501e-10 0.00172459 6.52108e-14)
(-7.74279e-10 0.00172856 6.51889e-14)
(-7.76057e-10 0.00173252 6.52108e-14)
(-7.77834e-10 0.00173649 6.51888e-14)
(-7.79612e-10 0.00174046 6.52109e-14)
(-7.8139e-10 0.00174443 6.51887e-14)
(-7.83168e-10 0.0017484 6.5211e-14)
(-7.84946e-10 0.00175237 6.51887e-14)
(-7.86724e-10 0.00175634 6.5211e-14)
(-7.88502e-10 0.00176031 6.51886e-14)
(-7.9028e-10 0.00176428 6.5211e-14)
(-7.92058e-10 0.00176825 6.51885e-14)
(-7.93836e-10 0.00177222 6.52111e-14)
(-7.95613e-10 0.00177619 6.51884e-14)
(-7.97391e-10 0.00178015 6.52111e-14)
(-7.99169e-10 0.00178412 6.51884e-14)
(-8.00947e-10 0.00178809 6.52112e-14)
(-8.02725e-10 0.00179206 6.51883e-14)
(-8.04503e-10 0.00179603 6.52112e-14)
(-8.06281e-10 0.0018 6.51882e-14)
(-8.08059e-10 0.00180397 6.52113e-14)
(-8.09837e-10 0.00180794 6.51882e-14)
(-8.11615e-10 0.00181191 6.52113e-14)
(-8.13392e-10 0.00181588 6.51881e-14)
(-8.1517e-10 0.00181985 6.52114e-14)
(-8.16948e-10 0.00182381 6.5188e-14)
(-8.18726e-10 0.00182778 6.52114e-14)
(-8.20504e-10 0.00183175 6.5188e-14)
(-8.22282e-10 0.00183572 6.52115e-14)
(-8.2406e-10 0.00183969 6.51879e-14)
(-8.25838e-10 0.00184366 6.52115e-14)
(-8.27616e-10 0.00184763 6.51878e-14)
(-8.29394e-10 0.0018516 6.52116e-14)
(-8.31171e-10 0.00185557 6.51878e-14)
(-8.32949e-10 0.00185954 6.52116e-14)
(-8.34727e-10 0.00186351 6.51877e-14)
(-8.36505e-10 0.00186748 6.52117e-14)
(-8.38283e-10 0.00187144 6.51876e-14)
(-8.40061e-10 0.00187541 6.52117e-14)
(-8.41839e-10 0.00187938 6.51876e-14)
(-8.43617e-10 0.00188335 6.52118e-14)
(-8.45395e-10 0.00188732 6.51875e-14)
(-8.47173e-10 0.00189129 6.52118e-14)
(-8.48951e-10 0.00189526 6.51874e-14)
(-8.50728e-10 0.00189923 6.52119e-14)
(-8.52506e-10 0.0019032 6.51874e-14)
(-8.54284e-10 0.00190717 6.52119e-14)
(-8.56062e-10 0.00191114 6.51873e-14)
(-8.5784e-10 0.0019151 6.5212e-14)
(-8.59618e-10 0.00191907 6.51872e-14)
(-8.61396e-10 0.00192304 6.5212e-14)
(-8.63174e-10 0.00192701 6.51872e-14)
(-8.64952e-10 0.00193098 6.52121e-14)
(-8.6673e-10 0.00193495 6.51871e-14)
(-8.68507e-10 0.00193892 6.52121e-14)
(-8.70285e-10 0.00194289 6.5187e-14)
(-8.72063e-10 0.00194686 6.52122e-14)
(-8.73841e-10 0.00195083 6.5187e-14)
(-8.75619e-10 0.0019548 6.52122e-14)
(-8.77397e-10 0.00195876 6.51869e-14)
(-8.79175e-10 0.00196273 6.52122e-14)
(-8.80953e-10 0.0019667 6.51869e-14)
(-8.82731e-10 0.00197067 6.52123e-14)
(-8.84509e-10 0.00197464 6.51868e-14)
(-8.86286e-10 0.00197861 6.52123e-14)
(-8.88064e-10 0.00198258 6.51867e-14)
(-8.89842e-10 0.00198655 6.52124e-14)
(-8.9162e-10 0.00199052 6.51867e-14)
(-8.93398e-10 0.00199449 6.52124e-14)
(-8.95176e-10 0.00199846 6.51866e-14)
(-8.96954e-10 0.00200243 6.52125e-14)
(-8.98732e-10 0.00200639 6.51865e-14)
(-9.0051e-10 0.00201036 6.52125e-14)
(-9.02288e-10 0.00201433 6.51865e-14)
(-9.04065e-10 0.0020183 6.52126e-14)
(-9.05843e-10 0.00202227 6.51864e-14)
(-9.07621e-10 0.00202624 6.52126e-14)
(-9.09399e-10 0.00203021 6.51864e-14)
(-9.11177e-10 0.00203418 6.52127e-14)
(-9.12955e-10 0.00203815 6.51863e-14)
(-9.14733e-10 0.00204212 6.52127e-14)
(-9.16511e-10 0.00204609 6.51863e-14)
(-9.18289e-10 0.00205005 6.52127e-14)
(-9.20067e-10 0.00205402 6.51862e-14)
(-9.21844e-10 0.00205799 6.52128e-14)
(-9.23622e-10 0.00206196 6.51861e-14)
(-9.254e-10 0.00206593 6.52128e-14)
(-9.27178e-10 0.0020699 6.51861e-14)
(-9.28956e-10 0.00207387 6.52129e-14)
(-9.30734e-10 0.00207784 6.5186e-14)
(-9.32512e-10 0.00208181 6.52129e-14)
(-9.3429e-10 0.00208578 6.5186e-14)
(-9.36068e-10 0.00208975 6.5213e-14)
(-9.37846e-10 0.00209372 6.51859e-14)
(-9.39623e-10 0.00209768 6.5213e-14)
(-9.41401e-10 0.00210165 6.51858e-14)
(-9.43179e-10 0.00210562 6.52131e-14)
(-9.44957e-10 0.00210959 6.51858e-14)
(-9.46735e-10 0.00211356 6.52131e-14)
(-9.48513e-10 0.00211753 6.51857e-14)
(-9.50291e-10 0.0021215 6.52132e-14)
(-9.52069e-10 0.00212547 6.51857e-14)
(-9.53847e-10 0.00212944 6.52132e-14)
(-9.55625e-10 0.00213341 6.51856e-14)
(-9.57402e-10 0.00213738 6.52133e-14)
(-9.5918e-10 0.00214134 6.51856e-14)
(-9.60958e-10 0.00214531 6.52133e-14)
(-9.62736e-10 0.00214928 6.51855e-14)
(-9.64514e-10 0.00215325 6.52133e-14)
(-9.66292e-10 0.00215722 6.51854e-14)
(-9.6807e-10 0.00216119 6.52134e-14)
(-9.69848e-10 0.00216516 6.51854e-14)
(-9.71626e-10 0.00216913 6.52134e-14)
(-9.73404e-10 0.0021731 6.51853e-14)
(-9.75181e-10 0.00217707 6.52135e-14)
(-9.76959e-10 0.00218104 6.51853e-14)
(-9.78737e-10 0.00218501 6.52135e-14)
(-9.80515e-10 0.00218897 6.51852e-14)
(-9.82293e-10 0.00219294 6.52136e-14)
(-9.84071e-10 0.00219691 6.51852e-14)
(-9.85849e-10 0.00220088 6.52136e-14)
(-9.87627e-10 0.00220485 6.51851e-14)
(-9.89405e-10 0.00220882 6.52137e-14)
(-9.91183e-10 0.00221279 6.51851e-14)
(-9.9296e-10 0.00221676 6.52137e-14)
(-9.94738e-10 0.00222073 6.5185e-14)
(-9.96516e-10 0.0022247 6.52138e-14)
(-9.98294e-10 0.00222867 6.51849e-14)
(-1.00007e-09 0.00223263 6.52138e-14)
(-1.00185e-09 0.0022366 6.51849e-14)
(-1.00363e-09 0.00224057 6.52138e-14)
(-1.00541e-09 0.00224454 6.51848e-14)
(-1.00718e-09 0.00224851 6.52139e-14)
(-1.00896e-09 0.00225248 6.51848e-14)
(-1.01074e-09 0.00225645 6.52139e-14)
(-1.01252e-09 0.00226042 6.51847e-14)
(-1.0143e-09 0.00226439 6.5214e-14)
(-1.01607e-09 0.00226836 6.51847e-14)
(-1.01785e-09 0.00227233 6.5214e-14)
(-1.01963e-09 0.0022763 6.51846e-14)
(-1.02141e-09 0.00228026 6.52141e-14)
(-1.02318e-09 0.00228423 6.51846e-14)
(-1.02496e-09 0.0022882 6.52141e-14)
(-1.02674e-09 0.00229217 6.51845e-14)
(-1.02852e-09 0.00229614 6.52142e-14)
(-1.0303e-09 0.00230011 6.51845e-14)
(-1.03207e-09 0.00230408 6.52142e-14)
(-1.03385e-09 0.00230805 6.51844e-14)
(-1.03563e-09 0.00231202 6.52143e-14)
(-1.03741e-09 0.00231599 6.51844e-14)
(-1.03919e-09 0.00231996 6.52143e-14)
(-1.04096e-09 0.00232392 6.51843e-14)
(-1.04274e-09 0.00232789 6.52143e-14)
(-1.04452e-09 0.00233186 6.51842e-14)
(-1.0463e-09 0.00233583 6.52144e-14)
(-1.04808e-09 0.0023398 6.51842e-14)
(-1.04985e-09 0.00234377 6.52144e-14)
(-1.05163e-09 0.00234774 6.51841e-14)
(-1.05341e-09 0.00235171 6.52145e-14)
(-1.05519e-09 0.00235568 6.51841e-14)
(-1.05696e-09 0.00235965 6.52145e-14)
(-1.05874e-09 0.00236362 6.5184e-14)
(-1.06052e-09 0.00236758 6.52146e-14)
(-1.0623e-09 0.00237155 6.5184e-14)
(-1.06408e-09 0.00237552 6.52146e-14)
(-1.06585e-09 0.00237949 6.51839e-14)
(-1.06763e-09 0.00238346 6.52147e-14)
(-1.06941e-09 0.00238743 6.51839e-14)
(-1.07119e-09 0.0023914 6.52147e-14)
(-1.07297e-09 0.00239537 6.51838e-14)
(-1.07474e-09 0.00239934 6.52147e-14)
(-1.07652e-09 0.00240331 6.51838e-14)
(-1.0783e-09 0.00240728 6.52148e-14)
(-1.08008e-09 0.00241125 6.51837e-14)
(-1.08186e-09 0.00241521 6.52148e-14)
(-1.08363e-09 0.00241918 6.51837e-14)
(-1.08541e-09 0.00242315 6.52149e-14)
(-1.08719e-09 0.00242712 6.51836e-14)
(-1.08897e-09 0.00243109 6.52149e-14)
(-1.09075e-09 0.00243506 6.51836e-14)
(-1.09252e-09 0.00243903 6.5215e-14)
(-1.0943e-09 0.002443 6.51835e-14)
(-1.09608e-09 0.00244697 6.5215e-14)
(-1.09786e-09 0.00245094 6.51835e-14)
(-1.09963e-09 0.00245491 6.5215e-14)
(-1.10141e-09 0.00245887 6.51834e-14)
(-1.10319e-09 0.00246284 6.52151e-14)
(-1.10497e-09 0.00246681 6.51834e-14)
(-1.10675e-09 0.00247078 6.52151e-14)
(-1.10852e-09 0.00247475 6.51833e-14)
(-1.1103e-09 0.00247872 6.52152e-14)
(-1.11208e-09 0.00248269 6.51833e-14)
(-1.11386e-09 0.00248666 6.52152e-14)
(-1.11564e-09 0.00249063 6.51832e-14)
(-1.11741e-09 0.0024946 6.52153e-14)
(-1.11919e-09 0.00249857 6.51832e-14)
(-1.12097e-09 0.00250254 6.52153e-14)
(-1.12275e-09 0.0025065 6.51831e-14)
(-1.12453e-09 0.00251047 6.52154e-14)
(-1.1263e-09 0.00251444 6.51831e-14)
(-1.12808e-09 0.00251841 6.52154e-14)
(-1.12986e-09 0.00252238 6.5183e-14)
(-1.13164e-09 0.00252635 6.52155e-14)
(-1.13341e-09 0.00253032 6.51829e-14)
(-1.13519e-09 0.00253429 6.52155e-14)
(-1.13697e-09 0.00253826 6.51829e-14)
(-1.13875e-09 0.00254223 6.52155e-14)
(-1.14053e-09 0.0025462 6.51828e-14)
(-1.1423e-09 0.00255016 6.52156e-14)
(-1.14408e-09 0.00255413 6.51828e-14)
(-1.14586e-09 0.0025581 6.52156e-14)
(-1.14764e-09 0.00256207 6.51828e-14)
(-1.14942e-09 0.00256604 6.52157e-14)
(-1.15119e-09 0.00257001 6.51827e-14)
(-1.15297e-09 0.00257398 6.52157e-14)
(-1.15475e-09 0.00257795 6.51827e-14)
(-1.15653e-09 0.00258192 6.52158e-14)
(-1.15831e-09 0.00258589 6.51826e-14)
(-1.16008e-09 0.00258986 6.52158e-14)
(-1.16186e-09 0.00259383 6.51826e-14)
(-1.16364e-09 0.00259779 6.52158e-14)
(-1.16542e-09 0.00260176 6.51825e-14)
(-1.16719e-09 0.00260573 6.52159e-14)
(-1.16897e-09 0.0026097 6.51825e-14)
(-1.17075e-09 0.00261367 6.52159e-14)
(-1.17253e-09 0.00261764 6.51824e-14)
(-1.17431e-09 0.00262161 6.5216e-14)
(-1.17608e-09 0.00262558 6.51824e-14)
(-1.17786e-09 0.00262955 6.5216e-14)
(-1.17964e-09 0.00263352 6.51823e-14)
(-1.18142e-09 0.00263749 6.52161e-14)
(-1.1832e-09 0.00264145 6.51823e-14)
(-1.18497e-09 0.00264542 6.52161e-14)
(-1.18675e-09 0.00264939 6.51822e-14)
(-1.18853e-09 0.00265336 6.52162e-14)
(-1.19031e-09 0.00265733 6.51822e-14)
(-1.19209e-09 0.0026613 6.52162e-14)
(-1.19386e-09 0.00266527 6.51821e-14)
(-1.19564e-09 0.00266924 6.52163e-14)
(-1.19742e-09 0.00267321 6.51821e-14)
(-1.1992e-09 0.00267718 6.52163e-14)
(-1.20097e-09 0.00268115 6.5182e-14)
(-1.20275e-09 0.00268512 6.52163e-14)
(-1.20453e-09 0.00268908 6.5182e-14)
(-1.20631e-09 0.00269305 6.52164e-14)
(-1.20809e-09 0.00269702 6.51819e-14)
(-1.20986e-09 0.00270099 6.52164e-14)
(-1.21164e-09 0.00270496 6.51819e-14)
(-1.21342e-09 0.00270893 6.52165e-14)
(-1.2152e-09 0.0027129 6.51818e-14)
(-1.21698e-09 0.00271687 6.52165e-14)
(-1.21875e-09 0.00272084 6.51818e-14)
(-1.22053e-09 0.00272481 6.52166e-14)
(-1.22231e-09 0.00272878 6.51817e-14)
(-1.22409e-09 0.00273274 6.52166e-14)
(-1.22587e-09 0.00273671 6.51817e-14)
(-1.22764e-09 0.00274068 6.52167e-14)
(-1.22942e-09 0.00274465 6.51816e-14)
(-1.2312e-09 0.00274862 6.52167e-14)
(-1.23298e-09 0.00275259 6.51816e-14)
(-1.23476e-09 0.00275656 6.52167e-14)
(-1.23653e-09 0.00276053 6.51815e-14)
(-1.23831e-09 0.0027645 6.52168e-14)
(-1.24009e-09 0.00276847 6.51815e-14)
(-1.24187e-09 0.00277244 6.52168e-14)
(-1.24364e-09 0.00277641 6.51814e-14)
(-1.24542e-09 0.00278037 6.52169e-14)
(-1.2472e-09 0.00278434 6.51814e-14)
(-1.24898e-09 0.00278831 6.52169e-14)
(-1.25076e-09 0.00279228 6.51813e-14)
(-1.25253e-09 0.00279625 6.5217e-14)
(-1.25431e-09 0.00280022 6.51813e-14)
(-1.25609e-09 0.00280419 6.5217e-14)
(-1.25787e-09 0.00280816 6.51812e-14)
(-1.25965e-09 0.00281213 6.5217e-14)
(-1.26142e-09 0.0028161 6.51812e-14)
(-1.2632e-09 0.00282007 6.52171e-14)
(-1.26498e-09 0.00282403 6.51811e-14)
(-1.26676e-09 0.002828 6.52171e-14)
(-1.26854e-09 0.00283197 6.51811e-14)
(-1.27031e-09 0.00283594 6.52172e-14)
(-1.27209e-09 0.00283991 6.5181e-14)
(-1.27387e-09 0.00284388 6.52172e-14)
(-1.27565e-09 0.00284785 6.5181e-14)
(-1.27742e-09 0.00285182 6.52173e-14)
(-1.2792e-09 0.00285579 6.51809e-14)
(-1.28098e-09 0.00285976 6.52173e-14)
(-1.28276e-09 0.00286373 6.51809e-14)
(-1.28454e-09 0.00286769 6.52174e-14)
(-1.28631e-09 0.00287166 6.51808e-14)
(-1.28809e-09 0.00287563 6.52174e-14)
(-1.28987e-09 0.0028796 6.51808e-14)
(-1.29165e-09 0.00288357 6.52175e-14)
(-1.29343e-09 0.00288754 6.51807e-14)
(-1.2952e-09 0.00289151 6.52175e-14)
(-1.29698e-09 0.00289548 6.51807e-14)
(-1.29876e-09 0.00289945 6.52175e-14)
(-1.30054e-09 0.00290342 6.51807e-14)
(-1.30232e-09 0.00290739 6.52176e-14)
(-1.30409e-09 0.00291136 6.51806e-14)
(-1.30587e-09 0.00291532 6.52176e-14)
(-1.30765e-09 0.00291929 6.51806e-14)
(-1.30943e-09 0.00292326 6.52177e-14)
(-1.3112e-09 0.00292723 6.51805e-14)
(-1.31298e-09 0.0029312 6.52177e-14)
(-1.31476e-09 0.00293517 6.51805e-14)
(-1.31654e-09 0.00293914 6.52178e-14)
(-1.31832e-09 0.00294311 6.51804e-14)
(-1.32009e-09 0.00294708 6.52178e-14)
(-1.32187e-09 0.00295105 6.51804e-14)
(-1.32365e-09 0.00295502 6.52178e-14)
(-1.32543e-09 0.00295898 6.51803e-14)
(-1.32721e-09 0.00296295 6.52179e-14)
(-1.32898e-09 0.00296692 6.51803e-14)
(-1.33076e-09 0.00297089 6.52179e-14)
(-1.33254e-09 0.00297486 6.51802e-14)
(-1.33432e-09 0.00297883 6.5218e-14)
(-1.3361e-09 0.0029828 6.51802e-14)
(-1.33787e-09 0.00298677 6.5218e-14)
(-1.33965e-09 0.00299074 6.51801e-14)
(-1.34143e-09 0.00299471 6.52181e-14)
(-1.34321e-09 0.00299868 6.51801e-14)
(-1.34498e-09 0.00300265 6.52181e-14)
(-1.34676e-09 0.00300661 6.518e-14)
(-1.34854e-09 0.00301058 6.52182e-14)
(-1.35032e-09 0.00301455 6.518e-14)
(-1.3521e-09 0.00301852 6.52182e-14)
(-1.35387e-09 0.00302249 6.51799e-14)
(-1.35565e-09 0.00302646 6.52183e-14)
(-1.35743e-09 0.00303043 6.51799e-14)
(-1.35921e-09 0.0030344 6.52183e-14)