/*--------------------------------*- C++ -*----------------------------------*\
| =========                 |                                                 |
| \\      /  F ield         | OpenFOAM: The Open Source CFD Toolbox           |
|  \\    /   O peration     | Version:  2206                                  |
|   \\  /    A nd           | Website:  www.openfoam.com                      |
|    \\/     M anipulation  |                                                 |
\*---------------------------------------------------------------------------*/
FoamFile
{
    version     2.0;
    format      ascii;
    arch        "LSB;label=32;scalar=64";
    class       volScalarField;
    location    "2500";
    object      p;
}
// * * * * * * * * * * * * * * * * * * * * * * * * * * * * * * * * * * * * * //

dimensions      [0 2 -2 0 0 0 0];

internalField   nonuniform List<scalar> 
100
(
-2.2225776e-09
0.0389672727
0.0572458364
0.0746773241
0.0883181131
0.0996348891
0.109049299
0.116970125
0.123693671
0.129447412
0.134407445
0.138711865
0.142470147
0.145769969
0.1486822
0.151264612
0.15356467
0.155621659
0.157468306
0.159132053
0.16063604
0.161999889
0.163240325
0.164371669
0.165406241
0.166354687
0.167226237
0.168028933
0.168769799
0.169454996
0.170089941
0.170679419
0.171227659
0.171738419
0.172215041
0.172660506
0.173077482
0.17346836
0.173835286
0.174180196
0.174504833
0.174810777
0.175099454
0.175372163
0.175630081
0.175874282
0.176105744
0.176325363
0.176533956
0.176732273
0.176921002
0.177100776
0.177272175
0.177435736
0.177591954
0.177741285
0.17788415
0.178020943
0.178152023
0.178277728
0.17839837
0.17851424
0.178625606
0.178732722
0.178835822
0.178935124
0.179030834
0.179123143
0.17921223
0.179298263
0.179381399
0.179461785
0.179539559
0.179614853
0.179687788
0.179758479
0.179827035
0.179893557
0.179958143
0.180020882
0.180081861
0.180141161
0.180198858
0.180255024
0.180309729
0.180363037
0.18041501
0.180465706
0.180515181
0.180563486
0.180610672
0.180656789
0.18070188
0.180745975
0.180789084
0.180831314
0.180873158
0.180915092
0.180953632
0.180975982
)
;

boundaryField
{
    left
    {
        type            wedge;
    }
    right
    {
        type            wedge;
    }
    outerWall
    {
        type            zeroGradient;
    }
    innerWall
    {
        type            zeroGradient;
    }
    frontAndBack
    {
        type            empty;
    }
}


// ************************************************************************* //
