/*--------------------------------*- C++ -*----------------------------------*\
| =========                 |                                                 |
| \\      /  F ield         | OpenFOAM: The Open Source CFD Toolbox           |
|  \\    /   O peration     | Version:  2206                                  |
|   \\  /    A nd           | Website:  www.openfoam.com                      |
|    \\/     M anipulation  |                                                 |
\*---------------------------------------------------------------------------*/
FoamFile
{
    version     2.0;
    format      ascii;
    arch        "LSB;label=32;scalar=64";
    class       surfaceScalarField;
    location    "2500";
    object      phi;
}
// * * * * * * * * * * * * * * * * * * * * * * * * * * * * * * * * * * * * * //

dimensions      [0 3 -1 0 0 0 0];

oriented        oriented;

internalField   nonuniform List<scalar> 
99
(
2.39488071e-10
4.600669e-10
6.64190752e-10
8.54140992e-10
1.03170135e-09
1.19835924e-09
1.35533121e-09
1.50366058e-09
1.64421037e-09
1.77774455e-09
1.90489443e-09
2.02623963e-09
2.14225266e-09
2.25338677e-09
2.36000096e-09
2.46246058e-09
2.56104094e-09
2.65604398e-09
2.74768102e-09
2.83620924e-09
2.92178946e-09
3.00464601e-09
3.08489861e-09
3.16274885e-09
3.23828233e-09
3.311684e-09
3.3830099e-09
3.45243489e-09
3.51998923e-09
3.58584074e-09
3.64999641e-09
3.71262148e-09
3.77370174e-09
3.83340146e-09
3.89168664e-09
3.94872374e-09
4.00446037e-09
4.05906583e-09
4.11247008e-09
4.16484777e-09
4.21611209e-09
4.2664432e-09
4.31573805e-09
4.36418408e-09
4.41166271e-09
4.45836845e-09
4.50416767e-09
4.54926335e-09
4.59350719e-09
4.63711055e-09
4.67991113e-09
4.72212874e-09
4.76358788e-09
4.80451653e-09
4.84472742e-09
4.88445551e-09
4.92350261e-09
4.96211089e-09
5.00007367e-09
5.03763645e-09
5.07458564e-09
5.1111706e-09
5.14717472e-09
5.18284504e-09
5.21796365e-09
5.25277727e-09
5.28707044e-09
5.32108185e-09
5.35460031e-09
5.38785927e-09
5.42065449e-09
5.45320829e-09
5.48532368e-09
5.51721607e-09
5.54869676e-09
5.57996924e-09
5.61085246e-09
5.6415431e-09
5.67186869e-09
5.70201363e-09
5.73181343e-09
5.76144536e-09
5.79075651e-09
5.81990709e-09
5.84875849e-09
5.87745667e-09
5.90588297e-09
5.93415801e-09
5.96218542e-09
5.99006476e-09
6.01772404e-09
6.04523422e-09
6.07254818e-09
6.09971393e-09
6.12670651e-09
6.15355321e-09
6.18024633e-09
6.20679655e-09
6.23321256e-09
)
;

boundaryField
{
    left
    {
        type            wedge;
        value           nonuniform List<scalar> 
100
(
1.3401199e-05
1.23432619e-05
1.142266e-05
1.06292853e-05
9.93620292e-06
9.32582744e-06
8.78411531e-06
8.30013285e-06
7.86515985e-06
7.47214928e-06
7.11534522e-06
6.78999982e-06
6.4921617e-06
6.21851614e-06
5.9662615e-06
5.73301308e-06
5.51672941e-06
5.31565168e-06
5.12825633e-06
4.95321795e-06
4.78937717e-06
4.6357154e-06
4.49133495e-06
4.35544077e-06
4.2273262e-06
4.10636174e-06
3.99198412e-06
3.88368775e-06
3.78101824e-06
3.68356542e-06
3.59095805e-06
3.50286e-06
3.41896554e-06
3.33899598e-06
3.26269735e-06
3.18983715e-06
3.12020211e-06
3.05359682e-06
2.98984129e-06
2.92876982e-06
2.87022922e-06
2.81407829e-06
2.76018615e-06
2.70843128e-06
2.6587012e-06
2.61089122e-06
2.56490369e-06
2.52064795e-06
2.47803925e-06
2.43699825e-06
2.39745106e-06
2.35932834e-06
2.32256496e-06
2.28710011e-06
2.25287652e-06
2.21984022e-06
2.1879407e-06
2.15713026e-06
2.12736378e-06
2.09859898e-06
2.07079579e-06
2.04391621e-06
2.01792457e-06
1.99278693e-06
1.96847122e-06
1.94494687e-06
1.92218515e-06
1.90015863e-06
1.87884116e-06
1.85820811e-06
1.83823592e-06
1.81890207e-06
1.80018534e-06
1.78206538e-06
1.76452267e-06
1.74753882e-06
1.73109617e-06
1.7151777e-06
1.6997674e-06
1.68484984e-06
1.67041015e-06
1.6564343e-06
1.64290874e-06
1.6298204e-06
1.61715695e-06
1.60490644e-06
1.59305731e-06
1.58159868e-06
1.57051993e-06
1.55981096e-06
1.54946187e-06
1.53946339e-06
1.52980644e-06
1.5204822e-06
1.5114823e-06
1.50279845e-06
1.49442227e-06
1.48634529e-06
1.4785581e-06
1.47104804e-06
)
;
    }
    right
    {
        type            wedge;
        value           nonuniform List<scalar> 
100
(
-1.34014385e-05
-1.23434825e-05
-1.14228641e-05
-1.06294753e-05
-9.93638048e-06
-9.3259941e-06
-8.78427229e-06
-8.30028117e-06
-7.8653004e-06
-7.47228281e-06
-7.11547237e-06
-6.79012116e-06
-6.49227772e-06
-6.21862727e-06
-5.96636812e-06
-5.73311553e-06
-5.516828e-06
-5.31574667e-06
-5.12834798e-06
-4.95330647e-06
-4.78946276e-06
-4.63579825e-06
-4.49141521e-06
-4.35551861e-06
-4.22740174e-06
-4.10643512e-06
-3.99205546e-06
-3.88375715e-06
-3.78108581e-06
-3.68363125e-06
-3.59102223e-06
-3.5029226e-06
-3.41902664e-06
-3.33905565e-06
-3.26275565e-06
-3.18989415e-06
-3.12025787e-06
-3.05365139e-06
-2.98989472e-06
-2.92882215e-06
-2.87028051e-06
-2.81412858e-06
-2.76023548e-06
-2.70847968e-06
-2.65874871e-06
-2.61093788e-06
-2.56494952e-06
-2.520693e-06
-2.47808354e-06
-2.4370418e-06
-2.3974939e-06
-2.3593705e-06
-2.32260647e-06
-2.28714098e-06
-2.25291678e-06
-2.21987989e-06
-2.1879798e-06
-2.15716881e-06
-2.1274018e-06
-2.09863648e-06
-2.0708328e-06
-2.04395274e-06
-2.01796063e-06
-1.99282254e-06
-1.9685064e-06
-1.94498163e-06
-1.9222195e-06
-1.90019259e-06
-1.87887474e-06
-1.85824131e-06
-1.83826877e-06
-1.81893458e-06
-1.80021751e-06
-1.78209723e-06
-1.7645542e-06
-1.74757005e-06
-1.7311271e-06
-1.71520835e-06
-1.69979778e-06
-1.68487995e-06
-1.67044e-06
-1.6564639e-06
-1.6429381e-06
-1.62984953e-06
-1.61718585e-06
-1.60493512e-06
-1.59308578e-06
-1.58162694e-06
-1.570548e-06
-1.55983883e-06
-1.54948956e-06
-1.5394909e-06
-1.52983378e-06
-1.52050937e-06
-1.51150931e-06
-1.5028253e-06
-1.49444897e-06
-1.48637185e-06
-1.47858453e-06
-1.47107432e-06
)
;
    }
    outerWall
    {
        type            calculated;
        value           uniform 6.25950047e-09;
    }
    innerWall
    {
        type            calculated;
        value           uniform 0;
    }
    frontAndBack
    {
        type            empty;
        value           nonuniform List<scalar> 0();
    }
}


// ************************************************************************* //
