/*--------------------------------*- C++ -*----------------------------------*\
| =========                 |                                                 |
| \\      /  F ield         | OpenFOAM: The Open Source CFD Toolbox           |
|  \\    /   O peration     | Version:  2206                                  |
|   \\  /    A nd           | Website:  www.openfoam.com                      |
|    \\/     M anipulation  |                                                 |
\*---------------------------------------------------------------------------*/
FoamFile
{
    version     2.0;
    format      ascii;
    arch        "LSB;label=32;scalar=64";
    class       volVectorField;
    location    "2500";
    object      U;
}
// * * * * * * * * * * * * * * * * * * * * * * * * * * * * * * * * * * * * * //

dimensions      [0 1 -1 0 0 0 0];

internalField   nonuniform List<vector> 
100
(
(0.0121906253 0.595619488 0)
(-0.00388962805 0.54859922 0)
(0.000906322459 0.507682847 0)
(-0.000155260482 0.472421123 0)
(7.15861492e-05 0.44161691 0)
(5.30379642e-05 0.414488626 0)
(6.872367e-05 0.390412102 0)
(7.75752823e-05 0.368901384 0)
(8.50723004e-05 0.349568907 0)
(9.10813398e-05 0.332101458 7.3479258e-20)
(9.59424721e-05 0.316243216 -7.75724273e-20)
(9.98656218e-05 0.301783161 0)
(0.000103023047 0.288545678 0)
(0.000105550743 0.276383436 8.71180317e-20)
(0.000107557452 0.265171912 0)
(0.000109130925 0.254805136 0)
(0.000110342465 0.245192357 0)
(0.000111250489 0.236255404 0)
(0.00011190308 0.227926578 0)
(0.000112340155 0.220146955 0)
(0.000112594916 0.212865008 0)
(0.000112695211 0.206035479 0)
(0.000112664401 0.199618455 0)
(0.000112522281 0.193578602 0)
(0.000112285572 0.187884523 0)
(0.000111968545 0.182508229 0)
(0.000111583311 0.177424684 0)
(0.000111140307 0.17261143 0)
(0.000110648422 0.168048259 0)
(0.000110115353 0.163716942 0)
(0.000109547669 0.159600989 0)
(0.000108951113 0.15568545 0)
(0.000108330587 0.151956737 0)
(0.000107690395 0.148402474 0)
(0.000107034201 0.145011363 0)
(0.00010636526 0.141773071 0)
(0.000105686337 0.138678128 0)
(0.000104999891 0.13571784 0)
(0.000104307999 0.132884211 0)
(0.000103612536 0.130169871 0)
(0.000102915074 0.127568023 0)
(0.000102217034 0.125072382 0)
(0.000101519592 0.12267713 0)
(0.000100823833 0.120376875 0)
(0.000100130642 0.11816661 0)
(9.94408366e-05 0.116041682 0)
(9.87550697e-05 0.113997757 0)
(9.80739592e-05 0.112030801 0)
(9.73979879e-05 0.110137044 0)
(9.67276149e-05 0.10831297 0)
(9.60631873e-05 0.106555285 0)
(9.54050406e-05 0.10486091 0)
(9.47534179e-05 0.103226955 0)
(9.41085587e-05 0.101650711 0)
(9.347063e-05 0.100129633 0)
(9.28397919e-05 0.0986613291 0)
(9.22161453e-05 0.0972435474 0)
(9.15997965e-05 0.0958741678 0)
(9.09908129e-05 0.0945511916 0)
(9.03892411e-05 0.0932727332 0)
(8.97951005e-05 0.0920370117 0)
(8.92084081e-05 0.0908423445 0)
(8.86291793e-05 0.0896871399 0)
(8.80573841e-05 0.0885698914 0)
(8.74929995e-05 0.0874891719 0)
(8.69359876e-05 0.0864436286 0)
(8.63863383e-05 0.0854319783 7.27516077e-20)
(8.58439732e-05 0.0844530026 0)
(8.53088487e-05 0.0835055443 0)
(8.4780887e-05 0.0825885033 0)
(8.42600587e-05 0.081700833 0)
(8.37462602e-05 0.0808415373 6.94730648e-20)
(8.32394347e-05 0.0800096677 0)
(8.27394895e-05 0.0792043199 0)
(8.22463824e-05 0.0784246318 0)
(8.17600003e-05 0.0776697806 -6.70030065e-20)
(8.12802745e-05 0.076938981 0)
(8.08071065e-05 0.0762314826 0)
(8.03404458e-05 0.0755465683 0)
(7.98801744e-05 0.0748835523 0)
(7.94262163e-05 0.0742417783 0)
(7.89784715e-05 0.0736206182 0)
(7.85368959e-05 0.07301947 0)
(7.81013636e-05 0.0724377573 -6.24556497e-20)
(7.76718116e-05 0.0718749269 0)
(7.72481303e-05 0.0713304485 0)
(7.68303039e-05 0.0708038128 0)
(7.64182079e-05 0.0702945311 6.03672965e-20)
(7.60117224e-05 0.0698021337 0)
(7.56104574e-05 0.0693261691 0)
(7.52144951e-05 0.0688662031 0)
(7.48267032e-05 0.068421818 5.83938977e-20)
(7.44532111e-05 0.0679926114 0)
(7.40786306e-05 0.0675781948 0)
(7.36043544e-05 0.067178192 0)
(7.29460452e-05 0.0667922346 5.65286767e-20)
(7.28871514e-05 0.0664199548 0)
(7.61640848e-05 0.0660609717 0)
(8.14690176e-05 0.0657148668 0)
(5.91845413e-05 0.0653810815 0)
)
;

boundaryField
{
    left
    {
        type            wedge;
    }
    right
    {
        type            wedge;
    }
    outerWall
    {
        type            navierSlip;
        value           uniform (0 0.0652345472 0);
        slipLength      uniform 1;
        wallVelocity    uniform (0 0 0);
    }
    innerWall
    {
        type            rotatingWallVelocity;
        origin          (0 0 0);
        axis            (0 0 1);
        omega           constant 12.566;
        value           uniform (0 0.628204307 -0);
    }
    frontAndBack
    {
        type            empty;
    }
}


// ************************************************************************* //
