/*--------------------------------*- C++ -*----------------------------------*\
| =========                 |                                                 |
| \\      /  F ield         | OpenFOAM: The Open Source CFD Toolbox           |
|  \\    /   O peration     | Version:  2206                                  |
|   \\  /    A nd           | Website:  www.openfoam.com                      |
|    \\/     M anipulation  |                                                 |
\*---------------------------------------------------------------------------*/
FoamFile
{
    version     2.0;
    format      ascii;
    arch        "LSB;label=32;scalar=64";
    class       volScalarField;
    location    "6500";
    object      p;
}
// * * * * * * * * * * * * * * * * * * * * * * * * * * * * * * * * * * * * * //

dimensions      [0 2 -2 0 0 0 0];

internalField   nonuniform List<scalar> 
100
(
-7.02935742e-10
0.0390784211
0.0575035509
0.0751325401
0.0889854321
0.100528522
0.110174118
0.118327192
0.12528095
0.131260862
0.136441705
0.140960731
0.144926923
0.148427701
0.151533848
0.15430317
0.156783247
0.159013532
0.161026964
0.162851212
0.16450966
0.166022179
0.167405742
0.168674917
0.169842264
0.17091866
0.171913563
0.172835228
0.173690883
0.174486887
0.175228844
0.175921713
0.176569894
0.177177303
0.177747432
0.178283405
0.178788026
0.179263812
0.179713032
0.180137735
0.180539774
0.180920828
0.181282425
0.181625952
0.181952675
0.18226375
0.182560235
0.182843098
0.183113228
0.183371441
0.18361849
0.183855066
0.18408181
0.184299311
0.184508116
0.184708732
0.184901627
0.185087238
0.185265969
0.185438198
0.185604276
0.18576453
0.185919266
0.186068771
0.18621331
0.186353134
0.186488477
0.186619559
0.186746586
0.186869753
0.18698924
0.187105221
0.187217854
0.187327294
0.187433683
0.187537156
0.187637842
0.187735861
0.187831326
0.187924348
0.188015026
0.18810346
0.188189739
0.188273953
0.188356182
0.188436507
0.188515001
0.188591736
0.188666778
0.188740193
0.188812042
0.188882386
0.188951279
0.189018755
0.189084817
0.189149605
0.189213867
0.189278377
0.189337837
0.189372269
)
;

boundaryField
{
    left
    {
        type            wedge;
    }
    right
    {
        type            wedge;
    }
    outerWall
    {
        type            zeroGradient;
    }
    innerWall
    {
        type            zeroGradient;
    }
    frontAndBack
    {
        type            empty;
    }
}


// ************************************************************************* //
