/*--------------------------------*- C++ -*----------------------------------*\
| =========                 |                                                 |
| \\      /  F ield         | OpenFOAM: The Open Source CFD Toolbox           |
|  \\    /   O peration     | Version:  2206                                  |
|   \\  /    A nd           | Website:  www.openfoam.com                      |
|    \\/     M anipulation  |                                                 |
\*---------------------------------------------------------------------------*/
FoamFile
{
    version     2.0;
    format      ascii;
    arch        "LSB;label=32;scalar=64";
    class       surfaceScalarField;
    location    "6500";
    object      phi;
}
// * * * * * * * * * * * * * * * * * * * * * * * * * * * * * * * * * * * * * //

dimensions      [0 3 -1 0 0 0 0];

oriented        oriented;

internalField   nonuniform List<scalar> 
99
(
3.38777994e-10
6.51368077e-10
9.4119472e-10
1.21143689e-09
1.46459096e-09
1.70271901e-09
1.92752498e-09
2.14044641e-09
2.34269521e-09
2.53531576e-09
2.71919959e-09
2.8951301e-09
3.06378112e-09
3.22575615e-09
3.3815756e-09
3.53171558e-09
3.67658518e-09
3.81656745e-09
3.95198866e-09
4.08316298e-09
4.21035334e-09
4.33382184e-09
4.45378213e-09
4.57045641e-09
4.68401936e-09
4.79466216e-09
4.90252788e-09
5.00778365e-09
5.11054674e-09
5.21096503e-09
5.30913438e-09
5.4051876e-09
5.49920246e-09
5.59129964e-09
5.68154156e-09
5.77003925e-09
5.85684195e-09
5.94205287e-09
6.02570976e-09
6.10790963e-09
6.18868022e-09
6.2681135e-09
6.34622831e-09
6.42311265e-09
6.49877752e-09
6.57330762e-09
6.64670698e-09
6.71905772e-09
6.79035755e-09
6.86068657e-09
6.93003682e-09
6.99848673e-09
7.06602323e-09
7.1327235e-09
7.19856971e-09
7.2636382e-09
7.32790672e-09
7.39145108e-09
7.4542449e-09
7.51636369e-09
7.57777717e-09
7.63856082e-09
7.69868066e-09
7.75821241e-09
7.81711841e-09
7.87547503e-09
7.93324126e-09
7.99049362e-09
8.04718816e-09
8.10340166e-09
8.15908844e-09
8.21432391e-09
8.26906133e-09
8.32337513e-09
8.37721945e-09
8.43066449e-09
8.483666e-09
8.53629124e-09
8.58849964e-09
8.64035129e-09
8.69181014e-09
8.74293098e-09
8.79368375e-09
8.84411423e-09
8.89419954e-09
8.94397768e-09
8.9934326e-09
9.04259436e-09
9.09145254e-09
9.14003157e-09
9.18832543e-09
9.23635346e-09
9.28411332e-09
9.33162055e-09
9.37887634e-09
9.42589209e-09
9.47267178e-09
9.51922294e-09
9.56555292e-09
)
;

boundaryField
{
    left
    {
        type            wedge;
        value           nonuniform List<scalar> 
100
(
1.34133192e-05
1.23764905e-05
1.1475258e-05
1.06997849e-05
1.00232662e-05
9.4282692e-06
8.90087088e-06
8.43024296e-06
8.00775805e-06
7.62644957e-06
7.28063224e-06
6.96562029e-06
6.67751738e-06
6.41305791e-06
6.16948382e-06
5.94444938e-06
5.73594807e-06
5.54225246e-06
5.36186732e-06
5.19349281e-06
5.03599276e-06
4.8883696e-06
4.74974479e-06
4.61934074e-06
4.49646671e-06
4.38050781e-06
4.27091411e-06
4.16719228e-06
4.06889922e-06
3.97563512e-06
3.8870383e-06
3.80278145e-06
3.72256698e-06
3.64612373e-06
3.57320472e-06
3.50358392e-06
3.43705401e-06
3.37342519e-06
3.31252261e-06
3.25418538e-06
3.19826479e-06
3.14462382e-06
3.09313547e-06
3.04368182e-06
2.99615382e-06
2.95044992e-06
2.90647543e-06
2.86414248e-06
2.82336891e-06
2.78407778e-06
2.74619752e-06
2.70966095e-06
2.67440491e-06
2.64037051e-06
2.60750228e-06
2.57574789e-06
2.54505846e-06
2.51538777e-06
2.48669211e-06
2.45893053e-06
2.43206426e-06
2.40605645e-06
2.38087261e-06
2.35647985e-06
2.33284715e-06
2.30994489e-06
2.28774528e-06
2.2662218e-06
2.24534909e-06
2.22510336e-06
2.20546184e-06
2.18640271e-06
2.16790548e-06
2.14995048e-06
2.13251882e-06
2.11559276e-06
2.09915524e-06
2.08318982e-06
2.06768106e-06
2.05261408e-06
2.0379745e-06
2.02374884e-06
2.00992404e-06
1.99648748e-06
1.98342733e-06
1.97073209e-06
1.95839063e-06
1.94639252e-06
1.93472756e-06
1.92338606e-06
1.91235853e-06
1.9016361e-06
1.89121012e-06
1.88107214e-06
1.87121429e-06
1.86162882e-06
1.85230819e-06
1.8432454e-06
1.83443386e-06
1.82586625e-06
)
;
    }
    right
    {
        type            wedge;
        value           nonuniform List<scalar> 
100
(
-1.3413658e-05
-1.2376803e-05
-1.14755478e-05
-1.07000552e-05
-1.00235193e-05
-9.42850732e-06
-8.90109569e-06
-8.43045588e-06
-8.0079603e-06
-7.62664219e-06
-7.28081612e-06
-6.96579622e-06
-6.67768604e-06
-6.41321989e-06
-6.16963964e-06
-5.94459952e-06
-5.73609294e-06
-5.54239244e-06
-5.36200274e-06
-5.19362398e-06
-5.03611995e-06
-4.88849306e-06
-4.74986475e-06
-4.61945741e-06
-4.49658028e-06
-4.38061845e-06
-4.27102198e-06
-4.16729753e-06
-4.06900198e-06
-3.97573553e-06
-3.88713647e-06
-3.80287749e-06
-3.722661e-06
-3.64621582e-06
-3.57329497e-06
-3.50367241e-06
-3.43714082e-06
-3.37351039e-06
-3.31260627e-06
-3.25426757e-06
-3.19834557e-06
-3.14470324e-06
-3.09321359e-06
-3.04375869e-06
-2.99622949e-06
-2.95052444e-06
-2.90654884e-06
-2.86421482e-06
-2.82344022e-06
-2.7841481e-06
-2.74626688e-06
-2.70972939e-06
-2.67447246e-06
-2.6404372e-06
-2.60756814e-06
-2.57581295e-06
-2.54512274e-06
-2.5154513e-06
-2.48675491e-06
-2.45899264e-06
-2.43212569e-06
-2.40611722e-06
-2.38093274e-06
-2.35653937e-06
-2.33290607e-06
-2.31000323e-06
-2.28780306e-06
-2.26627903e-06
-2.2454058e-06
-2.22515956e-06
-2.20551754e-06
-2.18645793e-06
-2.16796023e-06
-2.15000478e-06
-2.13257268e-06
-2.1156462e-06
-2.09920826e-06
-2.08324244e-06
-2.06773329e-06
-2.05266593e-06
-2.03802598e-06
-2.02379995e-06
-2.0099748e-06
-1.99653791e-06
-1.98347742e-06
-1.97078186e-06
-1.95844009e-06
-1.94644168e-06
-1.93477642e-06
-1.92343464e-06
-1.91240683e-06
-1.90168413e-06
-1.89125789e-06
-1.88111965e-06
-1.87126155e-06
-1.86167584e-06
-1.85235497e-06
-1.84329195e-06
-1.83448019e-06
-1.82591236e-06
)
;
    }
    outerWall
    {
        type            calculated;
        value           uniform 9.61166827e-09;
    }
    innerWall
    {
        type            calculated;
        value           uniform 0;
    }
    frontAndBack
    {
        type            empty;
        value           nonuniform List<scalar> 0();
    }
}


// ************************************************************************* //
