/*--------------------------------*- C++ -*----------------------------------*\
| =========                 |                                                 |
| \\      /  F ield         | OpenFOAM: The Open Source CFD Toolbox           |
|  \\    /   O peration     | Version:  2206                                  |
|   \\  /    A nd           | Website:  www.openfoam.com                      |
|    \\/     M anipulation  |                                                 |
\*---------------------------------------------------------------------------*/
FoamFile
{
    version     2.0;
    format      ascii;
    arch        "LSB;label=32;scalar=64";
    class       volVectorField;
    location    "6500";
    object      U;
}
// * * * * * * * * * * * * * * * * * * * * * * * * * * * * * * * * * * * * * //

dimensions      [0 1 -1 0 0 0 0];

internalField   nonuniform List<vector> 
100
(
(0.0121940752 0.596162576 0)
(-0.00387488337 0.550080135 0)
(0.000932048473 0.510024346 0)
(-0.000128409727 0.475558007 0)
(0.000105188399 0.445489747 0)
(8.94687444e-05 0.41904477 0)
(0.000108240073 0.395604253 0)
(0.000119428474 0.374686927 0)
(0.000128854734 0.355909346 0)
(0.000136435884 0.338961875 7.3481159e-20)
(0.000142579663 0.323591828 -7.75651947e-20)
(0.000147546992 0.309590942 0)
(0.000151551302 0.296786048 0)
(0.000154761769 0.285031997 8.70897048e-20)
(0.000157313977 0.274206202 0)
(0.00015931763 0.264204425 0)
(0.000160862131 0.254937465 0)
(0.000162020848 0.246328549 0)
(0.000162854348 0.238311234 0)
(0.00016341294 0.230827734 0)
(0.000163738596 0.22382755 0)
(0.000163866537 0.21726636 0)
(0.000163826408 0.211105101 0)
(0.0001636433 0.205309215 0)
(0.000163338495 0.199848013 0)
(0.000162930133 0.194694154 0)
(0.000162433693 0.189823196 0)
(0.000161862456 0.185213225 0)
(0.000161227816 0.180844534 0)
(0.000160539591 0.176699354 0)
(0.000159806244 0.172761622 0)
(0.000159035104 0.169016778 0)
(0.000158232502 0.165451598 0)
(0.000157403944 0.162054038 0)
(0.000156554198 0.158813111 0)
(0.000155687422 0.155718771 0)
(0.000154807223 0.152761815 0)
(0.000153916754 0.149933796 0)
(0.000153018749 0.147226946 0)
(0.000152115603 0.144634112 0)
(0.000151209395 0.142148693 0)
(0.000150301944 0.139764589 0)
(0.000149394826 0.137476157 0)
(0.000148489424 0.135278165 0)
(0.000147586929 0.133165756 0)
(0.000146688385 0.131134418 0)
(0.000145794689 0.129179949 0)
(0.000144906624 0.127298437 0)
(0.000144024859 0.12548623 0)
(0.000143149974 0.123739916 0)
(0.000142282461 0.122056307 0)
(0.000141422742 0.120432415 0)
(0.000140571172 0.118865443 0)
(0.00013972805 0.117352765 0)
(0.000138893621 0.115891915 0)
(0.000138068091 0.114480576 0)
(0.00013725162 0.113116567 0)
(0.000136444338 0.111797834 0)
(0.000135646341 0.110522441 0)
(0.000134857699 0.109288562 0)
(0.000134078457 0.108094473 0)
(0.00013330864 0.106938544 0)
(0.000132548252 0.105819234 0)
(0.000131797283 0.104735084 0)
(0.000131055704 0.103684713 0)
(0.000130323481 0.102666811 0)
(0.000129600563 0.101680137 7.4014426e-20)
(0.00012888689 0.100723511 0)
(0.000128182393 0.0997958138 0)
(0.000127486997 0.098895981 0)
(0.000126800624 0.0980230004 0)
(0.000126123183 0.0971759087 7.08104637e-20)
(0.000125454581 0.0963537887 0)
(0.000124794723 0.0955557663 0)
(0.00012414352 0.0947810085 0)
(0.000123500861 0.0940287204 -6.83907129e-20)
(0.000122866645 0.0932981435 0)
(0.000122240762 0.0925885533 0)
(0.000121623123 0.0918992578 0)
(0.000121013603 0.0912295952 0)
(0.000120412101 0.0905789329 0)
(0.000119818498 0.0899466651 0)
(0.000119232705 0.0893322121 0)
(0.000118654593 0.0887350187 -6.39227583e-20)
(0.000118084065 0.0881545526 0)
(0.000117520999 0.0875903036 0)
(0.000116965319 0.0870417824 0)
(0.000116416918 0.0865085194 6.18650885e-20)
(0.000115875598 0.0859900638 0)
(0.000115340824 0.0854859825 0)
(0.00011481254 0.0849958596 0)
(0.000114294981 0.0845192952 5.99172949e-20)
(0.000113797929 0.0840559048 0)
(0.000113300636 0.0836053185 0)
(0.000112653988 0.0831671803 0)
(0.000111713069 0.0827411472 5.80731887e-20)
(0.000111640282 0.0823268882 0)
(0.000116670006 0.0819240872 0)
(0.000125044154 0.0815324517 0)
(9.10028285e-05 0.0811516612 0)
)
;

boundaryField
{
    left
    {
        type            wedge;
    }
    right
    {
        type            wedge;
    }
    outerWall
    {
        type            navierSlip;
        value           uniform (0 0.0809697814 0);
        slipLength      uniform 1;
        wallVelocity    uniform (0 0 0);
    }
    innerWall
    {
        type            rotatingWallVelocity;
        origin          (0 0 0);
        axis            (0 0 1);
        omega           constant 12.566;
        value           uniform (0 0.628204307 -0);
    }
    frontAndBack
    {
        type            empty;
    }
}


// ************************************************************************* //
