/*--------------------------------*- C++ -*----------------------------------*\
| =========                 |                                                 |
| \\      /  F ield         | OpenFOAM: The Open Source CFD Toolbox           |
|  \\    /   O peration     | Version:  2206                                  |
|   \\  /    A nd           | Website:  www.openfoam.com                      |
|    \\/     M anipulation  |                                                 |
\*---------------------------------------------------------------------------*/
FoamFile
{
    version     2.0;
    format      ascii;
    arch        "LSB;label=32;scalar=64";
    class       volScalarField;
    location    "140";
    object      p;
}
// * * * * * * * * * * * * * * * * * * * * * * * * * * * * * * * * * * * * * //

dimensions      [0 2 -2 0 0 0 0];

internalField   nonuniform List<scalar> 
100000
(
1.35501e-08
2.42289e-08
1.01363e-07
4.30437e-08
1.45541e-08
2.64955e-08
2.91509e-08
3.37006e-08
3.49836e-08
4.96463e-08
6.87724e-08
7.86228e-08
1.02077e-07
1.20893e-07
1.4719e-07
1.72531e-07
1.96049e-07
2.26301e-07
2.54569e-07
2.89412e-07
3.22051e-07
3.55034e-07
3.91354e-07
4.29566e-07
4.70135e-07
5.13521e-07
5.57946e-07
5.99459e-07
6.477e-07
6.94244e-07
7.46966e-07
7.97924e-07
8.48316e-07
9.03492e-07
9.58589e-07
1.01853e-06
1.07782e-06
1.13561e-06
1.199e-06
1.26162e-06
1.32968e-06
1.39657e-06
1.46244e-06
1.53349e-06
1.60414e-06
1.67992e-06
1.75481e-06
1.82843e-06
1.90748e-06
1.9859e-06
2.06967e-06
2.15234e-06
2.23396e-06
2.3208e-06
2.40722e-06
2.49878e-06
2.58946e-06
2.67887e-06
2.77374e-06
2.86792e-06
2.96757e-06
3.06596e-06
3.16351e-06
3.26604e-06
3.36845e-06
3.47564e-06
3.5824e-06
3.68734e-06
3.79843e-06
3.908e-06
4.02405e-06
4.13762e-06
4.25185e-06
4.36923e-06
4.48871e-06
4.61036e-06
4.73508e-06
4.86059e-06
4.9835e-06
5.11293e-06
5.24088e-06
5.37489e-06
5.50724e-06
5.63898e-06
5.77564e-06
5.9121e-06
6.05359e-06
6.19426e-06
6.33366e-06
6.4785e-06
6.62273e-06
6.77231e-06
6.92081e-06
7.06824e-06
7.22097e-06
7.37319e-06
7.5307e-06
7.68717e-06
7.84255e-06
8.00322e-06
8.16342e-06
8.32885e-06
8.49332e-06
8.65659e-06
8.8253e-06
8.99335e-06
9.16686e-06
9.33913e-06
9.51055e-06
9.68699e-06
9.86328e-06
1.00444e-05
1.0225e-05
1.04039e-05
1.05889e-05
1.07724e-05
1.09624e-05
1.11499e-05
1.13381e-05
1.15294e-05
1.17229e-05
1.19185e-05
1.21172e-05
1.23167e-05
1.25136e-05
1.2717e-05
1.29189e-05
1.31269e-05
1.33332e-05
1.3539e-05
1.37496e-05
1.39601e-05
1.41756e-05
1.43903e-05
1.46037e-05
1.48226e-05
1.50408e-05
1.52644e-05
1.5487e-05
1.57084e-05
1.59352e-05
1.61614e-05
1.6393e-05
1.66235e-05
1.68529e-05
1.70877e-05
1.73219e-05
1.75614e-05
1.77999e-05
1.80372e-05
1.82799e-05
1.85221e-05
1.87696e-05
1.90161e-05
1.92614e-05
1.95121e-05
1.97622e-05
2.00177e-05
2.0272e-05
2.05255e-05
2.07839e-05
2.10423e-05
2.13054e-05
2.15681e-05
2.1829e-05
2.20961e-05
2.23616e-05
2.26337e-05
2.29032e-05
2.31734e-05
2.34468e-05
2.37223e-05
2.4e-05
2.42807e-05
2.45623e-05
2.48412e-05
2.51267e-05
2.54107e-05
2.57008e-05
2.59891e-05
2.6277e-05
2.65697e-05
2.68622e-05
2.71598e-05
2.74565e-05
2.7752e-05
2.80529e-05
2.83532e-05
2.86589e-05
2.89635e-05
2.92671e-05
2.95759e-05
2.98842e-05
3.01979e-05
3.05104e-05
3.08219e-05
3.11387e-05
3.14551e-05
3.17766e-05
3.20972e-05
3.24166e-05
3.27415e-05
3.30657e-05
3.33953e-05
3.37237e-05
3.40513e-05
3.43839e-05
3.47163e-05
3.50536e-05
3.53904e-05
3.57255e-05
3.60666e-05
3.64063e-05
3.67525e-05
3.70961e-05
3.74405e-05
3.7788e-05
3.81376e-05
3.84894e-05
3.88443e-05
3.91999e-05
3.9553e-05
3.99126e-05
4.02707e-05
4.06349e-05
4.09974e-05
4.13594e-05
4.17262e-05
4.20929e-05
4.24646e-05
4.28354e-05
4.32051e-05
4.35801e-05
4.39546e-05
4.43344e-05
4.47131e-05
4.50908e-05
4.54737e-05
4.58562e-05
4.62439e-05
4.66307e-05
4.70163e-05
4.74072e-05
4.77977e-05
4.81934e-05
4.85881e-05
4.89817e-05
4.93806e-05
4.9779e-05
5.01827e-05
5.05854e-05
5.09869e-05
5.13939e-05
5.18002e-05
5.22119e-05
5.26224e-05
5.30321e-05
5.34468e-05
5.38613e-05
5.42807e-05
5.46996e-05
5.51168e-05
5.55401e-05
5.59618e-05
5.63901e-05
5.68159e-05
5.72424e-05
5.7672e-05
5.81037e-05
5.85376e-05
5.89746e-05
5.94123e-05
5.98475e-05
6.02892e-05
6.07294e-05
6.11758e-05
6.16204e-05
6.20644e-05
6.25134e-05
6.29622e-05
6.3416e-05
6.3869e-05
6.43207e-05
6.47778e-05
6.52344e-05
6.56963e-05
6.61572e-05
6.6617e-05
6.7082e-05
6.75466e-05
6.80165e-05
6.84853e-05
6.8953e-05
6.94261e-05
6.98986e-05
7.03765e-05
7.08533e-05
7.1329e-05
7.181e-05
7.22905e-05
7.27764e-05
7.32611e-05
7.37449e-05
7.42337e-05
7.47224e-05
7.52159e-05
7.5709e-05
7.62003e-05
7.66977e-05
7.71936e-05
7.7696e-05
7.81959e-05
7.86965e-05
7.92003e-05
7.97062e-05
8.02142e-05
8.07254e-05
8.12372e-05
8.17466e-05
8.22624e-05
8.27768e-05
8.32972e-05
8.3816e-05
8.43342e-05
8.48573e-05
8.53802e-05
8.59082e-05
8.64353e-05
8.69612e-05
8.74925e-05
8.80232e-05
8.85593e-05
8.90942e-05
8.96282e-05
9.01674e-05
9.07061e-05
9.12501e-05
9.17931e-05
9.2335e-05
9.28822e-05
9.34289e-05
9.39809e-05
9.45318e-05
9.50817e-05
9.56368e-05
9.61915e-05
9.67514e-05
9.73104e-05
9.78682e-05
9.84314e-05
9.89939e-05
9.9562e-05
0.000100129
0.000100695
0.000101266
0.000101836
0.000102412
0.000102987
0.000103561
0.00010414
0.000104718
0.000105303
0.000105885
0.000106468
0.000107053
0.000107641
0.000108232
0.000108825
0.000109419
0.00011001
0.000110608
0.000111205
0.000111807
0.000112408
0.000113009
0.000113614
0.000114219
0.000114829
0.000115438
0.000116046
0.00011666
0.000117272
0.000117891
0.000118508
0.000119124
0.000119745
0.000120366
0.000120992
0.000121617
0.000122241
0.00012287
0.000123499
0.000124133
0.000124766
0.000125398
0.000126036
0.000126672
0.000127315
0.000127955
0.000128596
0.000129241
0.000129886
0.000130535
0.000131185
0.000131832
0.000132486
0.000133138
0.000133797
0.000134453
0.00013511
0.00013577
0.000136432
0.000137096
0.000137764
0.000138432
0.000139098
0.00013977
0.00014044
0.000141117
0.000141792
0.000142467
0.000143146
0.000143825
0.000144509
0.000145193
0.000145875
0.000146562
0.000147249
0.000147942
0.000148633
0.000149323
0.000150019
0.000150714
0.000151414
0.000152113
0.000152811
0.000153515
0.000154218
0.000154926
0.000155633
0.000156339
0.000157051
0.000157762
0.000158478
0.000159193
0.000159907
0.000160627
0.000161346
0.00016207
0.000162793
0.000163515
0.000164242
0.000164969
0.000165701
0.000166433
0.000167162
0.000167898
0.000168633
0.000169373
0.000170112
0.000170851
0.000171593
0.000172337
0.000173083
0.000173833
0.000174583
0.000175331
0.000176085
0.000176838
0.000177597
0.000178354
0.000179111
0.000179872
0.000180633
0.0001814
0.000182165
0.000182929
0.000183699
0.000184468
0.000185243
0.000186016
0.000186788
0.000187566
0.000188343
0.000189126
0.000189907
0.000190687
0.000191473
0.000192258
0.000193048
0.000193838
0.000194626
0.000195419
0.000196212
0.000197011
0.000197808
0.000198604
0.000199406
0.000200207
0.000201013
0.000201819
0.000202622
0.000203432
0.000204241
0.000205056
0.000205868
0.000206681
0.000207498
0.000208316
0.000209137
0.00020996
0.000210785
0.000211607
0.000212435
0.000213262
0.000214095
0.000214926
0.000215757
0.000216593
0.000217428
0.000218269
0.000219108
0.000219947
0.000220791
0.000221634
0.000222482
0.00022333
0.000224176
0.000225028
0.000225879
0.000226736
0.000227591
0.000228446
0.000229306
0.000230165
0.000231029
0.000231893
0.000232755
0.000233623
0.00023449
0.000235363
0.000236234
0.000237105
0.00023798
0.000238855
0.000239736
0.000240615
0.000241494
0.000242377
0.000243261
0.000244149
0.000245036
0.000245922
0.000246815
0.000247705
0.000248602
0.000249497
0.000250392
0.00025129
0.000252191
0.000253094
0.000253999
0.000254906
0.00025581
0.000256721
0.00025763
0.000258545
0.000259458
0.000260371
0.000261289
0.000262206
0.000263129
0.000264051
0.000264971
0.000265897
0.000266823
0.000267753
0.000268683
0.000269612
0.000270545
0.000271479
0.000272418
0.000273355
0.000274292
0.000275234
0.000276175
0.000277122
0.000278067
0.000279012
0.000279962
0.000280911
0.000281866
0.000282819
0.000283772
0.000284729
0.000285687
0.000286649
0.000287611
0.000288571
0.000289537
0.000290502
0.000291473
0.000292442
0.000293411
0.000294384
0.000295359
0.000296336
0.000297315
0.000298296
0.000299274
0.000300259
0.000301242
0.000302231
0.000303219
0.000304206
0.000305198
0.00030619
0.000307186
0.000308182
0.000309177
0.000310177
0.000311177
0.000312182
0.000313185
0.000314188
0.000315196
0.000316204
0.000317217
0.000318228
0.000319239
0.000320255
0.000321271
0.000322291
0.000323311
0.00032433
0.000325354
0.000326377
0.000327406
0.000328434
0.00032946
0.000330492
0.000331524
0.000332561
0.000333596
0.000334631
0.000335671
0.00033671
0.000337755
0.000338799
0.000339841
0.000340889
0.000341936
0.00034299
0.00034404
0.000345092
0.000346147
0.000347203
0.000348262
0.000349324
0.000350387
0.000351448
0.000352514
0.00035358
0.000354651
0.000355721
0.00035679
0.000357864
0.000358938
0.000360017
0.000361095
0.000362172
0.000363254
0.000364335
0.000365422
0.000366508
0.000367593
0.000368683
0.000369773
0.000370868
0.000371962
0.000373055
0.000374153
0.000375251
0.000376353
0.000377455
0.000378556
0.000379662
0.000380768
0.000381879
0.000382989
0.000384097
0.000385211
0.000386325
0.000387444
0.000388562
0.000389678
0.000390801
0.000391922
0.000393049
0.000394174
0.0003953
0.000396429
0.00039756
0.000398693
0.000399829
0.000400966
0.0004021
0.000403241
0.000404381
0.000405526
0.00040667
0.000407814
0.000408962
0.00041011
0.000411263
0.000412415
0.000413566
0.000414722
0.000415878
0.000417039
0.000418199
0.000419358
0.000420523
0.000421687
0.000422856
0.000424024
0.000425191
0.000426363
0.000427535
0.000428712
0.000429888
0.000431063
0.000432243
0.000433423
0.000434608
0.000435792
0.000436975
0.000438163
0.000439351
0.000440544
0.000441736
0.000442927
0.000444123
0.000445319
0.000446519
0.00044772
0.000448918
0.000450123
0.000451326
0.000452535
0.000453743
0.00045495
0.000456161
0.000457374
0.00045859
0.000459808
0.000461027
0.000462244
0.000463467
0.000464688
0.000465916
0.000467142
0.000468367
0.000469598
0.000470828
0.000472063
0.000473297
0.00047453
0.000475769
0.000477007
0.00047825
0.000479492
0.000480733
0.00048198
0.000483226
0.000484477
0.000485727
0.000486976
0.000488231
0.000489485
0.000490744
0.000492002
0.000493259
0.000494521
0.000495783
0.000497051
0.000498317
0.000499582
0.000500852
0.000502122
0.000503397
0.000504671
0.000505944
0.000507223
0.0005085
0.000509784
0.000511065
0.000512347
0.000513632
0.000514919
0.000516209
0.000517501
0.000518795
0.000520085
0.000521382
0.000522678
0.00052398
0.00052528
0.00052658
0.000527884
0.000529188
0.000530498
0.000531806
0.000533113
0.000534426
0.000535738
0.000537056
0.000538372
0.000539687
0.000541008
0.000542328
0.000543653
0.000544978
0.000546301
0.000547629
0.000548957
0.000550291
0.000551623
0.000552954
0.000554291
0.000555627
0.000556968
0.000558309
0.000559648
0.000560992
0.000562336
0.000563686
0.000565034
0.000566381
0.000567733
0.000569085
0.000570443
0.000571799
0.000573154
0.000574515
0.000575874
0.00057724
0.000578603
0.000579968
0.000581335
0.000582704
0.000584076
0.00058545
0.000586826
0.000588198
0.000589578
0.000590956
0.00059234
0.000593722
0.000595103
0.00059649
0.000597876
0.000599268
0.000600659
0.000602048
0.000603443
0.000604837
0.000606236
0.000607635
0.000609032
0.000610435
0.000611837
0.000613245
0.000614651
0.000616057
0.000617467
0.000618877
0.000620293
0.000621707
0.000623121
0.000624539
0.000625957
0.000627381
0.000628803
0.000630225
0.000631651
0.000633077
0.000634509
0.000635939
0.000637368
0.000638803
0.000640237
0.000641677
0.000643114
0.000644553
0.000645994
0.000647438
0.000648883
0.000650332
0.000651782
0.000653229
0.000654682
0.000656134
0.000657592
0.000659048
0.000660504
0.000661965
0.000663426
0.000664891
0.000666356
0.000667819
0.000669288
0.000670757
0.00067223
0.000673703
0.000675175
0.000676652
0.000678128
0.00067961
0.00068109
0.00068257
0.000684054
0.000685539
0.000687028
0.000688517
0.000690005
0.000691497
0.00069299
0.000694487
0.000695984
0.000697479
0.00069898
0.00070048
0.000701986
0.00070349
0.000704994
0.000706502
0.000708011
0.000709524
0.000711037
0.000712548
0.000714065
0.000715581
0.000717103
0.000718623
0.000720143
0.000721667
0.000723192
0.00072472
0.000726251
0.000727783
0.000729312
0.000730847
0.000732381
0.000733922
0.00073546
0.000736998
0.000738541
0.000740084
0.000741631
0.000743178
0.000744724
0.000746275
0.000747825
0.000749381
0.000750936
0.00075249
0.000754049
0.000755607
0.000757171
0.000758734
0.000760295
0.000761862
0.000763429
0.000765
0.000766571
0.000768141
0.000769716
0.00077129
0.00077287
0.000774448
0.000776026
0.000777609
0.000779192
0.000780779
0.000782366
0.000783951
0.000785542
0.000787132
0.000788729
0.000790322
0.000791917
0.000793515
0.000795114
0.000796716
0.000798321
0.000799927
0.00080153
0.00080314
0.000804748
0.000806363
0.000807975
0.000809588
0.000811205
0.000812821
0.000814443
0.000816064
0.000817684
0.000819309
0.000820934
0.000822564
0.000824193
0.000825821
0.000827454
0.000829086
0.000830724
0.000832361
0.000833997
0.000835638
0.000837279
0.000838925
0.000840569
0.000842213
0.000843862
0.000845511
0.000847165
0.000848818
0.000850469
0.000852126
0.000853783
0.000855445
0.000857106
0.000858765
0.00086043
0.000862095
0.000863765
0.000865434
0.000867101
0.000868774
0.000870446
0.000872125
0.000873801
0.000875477
0.000877157
0.000878839
0.000880523
0.00088221
0.000883898
0.000885584
0.000887275
0.000888966
0.000890662
0.000892357
0.000894051
0.00089575
0.000897449
0.000899153
0.000900857
0.000902558
0.000904266
0.000905973
0.000907685
0.000909396
0.000911106
0.000912821
0.000914536
0.000916256
0.000917975
0.000919693
0.000921416
0.000923139
0.000924867
0.000926594
0.000928319
0.000930051
0.000931781
0.000933517
0.000935252
0.000936986
0.000938725
0.000940464
0.000942208
0.000943951
0.000945693
0.00094744
0.000949186
0.000950939
0.000952689
0.00095444
0.000956194
0.00095795
0.000959708
0.000961469
0.000963231
0.000964991
0.000966757
0.000968521
0.000970292
0.000972061
0.000973829
0.000975603
0.000977376
0.000979154
0.000980931
0.000982707
0.000984489
0.00098627
0.000988056
0.000989841
0.000991625
0.000993415
0.000995204
0.000996998
0.000998791
0.00100058
0.00100238
0.00100418
0.00100598
0.00100778
0.00100958
0.00101139
0.00101319
0.001015
0.00101681
0.00101862
0.00102043
0.00102224
0.00102406
0.00102588
0.0010277
0.00102952
0.00103134
0.00103316
0.00103499
0.00103681
0.00103864
0.00104047
0.0010423
0.00104414
0.00104597
0.00104781
0.00104964
0.00105148
0.00105333
0.00105517
0.00105701
0.00105886
0.00106071
0.00106256
0.00106441
0.00106626
0.00106812
0.00106997
0.00107183
0.00107369
0.00107555
0.00107742
0.00107928
0.00108115
0.00108301
0.00108488
0.00108675
0.00108862
0.0010905
0.00109237
0.00109425
0.00109613
0.00109801
0.00109989
0.00110177
0.00110366
0.00110554
0.00110743
0.00110932
0.00111121
0.0011131
0.001115
0.0011169
0.0011188
0.00112069
0.00112259
0.0011245
0.0011264
0.00112831
0.00113021
0.00113212
0.00113403
0.00113594
0.00113786
0.00113978
0.00114169
0.00114361
0.00114553
0.00114745
0.00114938
0.00115131
0.00115323
0.00115516
0.00115709
0.00115902
0.00116096
0.00116289
0.00116483
0.00116676
0.00116871
0.00117065
0.00117259
0.00117453
0.00117648
0.00117843
0.00118038
0.00118233
0.00118428
0.00118623
0.00118819
0.00119015
0.00119211
0.00119407
0.00119603
0.001198
0.00119996
0.00120193
0.00120389
0.00120586
0.00120784
0.00120981
0.00121178
0.00121376
0.00121574
0.00121772
0.0012197
0.00122168
0.00122367
0.00122565
0.00122764
0.00122963
0.00123162
0.00123361
0.00123561
0.0012376
0.0012396
0.00124161
0.0012436
0.00124561
0.00124761
0.00124962
0.00125163
0.00125363
0.00125565
0.00125766
0.00125967
0.00126169
0.0012637
0.00126572
0.00126774
0.00126977
0.00127179
0.00127381
0.00127584
0.00127787
0.0012799
0.00128193
0.00128396
0.001286
0.00128803
0.00129007
0.00129211
0.00129415
0.0012962
0.00129824
0.00130029
0.00130234
0.00130438
0.00130643
0.00130849
0.00131054
0.0013126
0.00131465
0.00131671
0.00131877
0.00132084
0.0013229
0.00132496
0.00132703
0.0013291
0.00133117
0.00133324
0.00133532
0.00133739
0.00133947
0.00134154
0.00134363
0.00134571
0.00134779
0.00134987
0.00135196
0.00135405
0.00135614
0.00135823
0.00136032
0.00136242
0.00136452
0.00136661
0.00136871
0.00137081
0.00137291
0.00137502
0.00137713
0.00137923
0.00138134
0.00138345
0.00138556
0.00138768
0.00138979
0.00139191
0.00139403
0.00139615
0.00139827
0.00140039
0.00140252
0.00140464
0.00140677
0.0014089
0.00141103
0.00141316
0.0014153
0.00141744
0.00141957
0.00142171
0.00142385
0.00142599
0.00142814
0.00143029
0.00143243
0.00143458
0.00143673
0.00143888
0.00144104
0.0014432
0.00144535
0.00144751
0.00144967
0.00145184
0.001454
0.00145616
0.00145833
0.0014605
0.00146267
0.00146484
0.00146701
0.00146919
0.00147137
0.00147355
0.00147573
0.0014779
0.00148009
0.00148227
0.00148446
0.00148665
0.00148884
0.00149103
0.00149322
0.00149542
0.00149761
0.00149981
0.00150201
0.00150421
0.00150641
0.00150861
0.00151082
0.00151303
0.00151523
0.00151745
0.00151966
0.00152187
0.00152408
0.0015263
0.00152852
0.00153074
0.00153296
0.00153518
0.00153741
0.00153963
0.00154186
0.0015441
0.00154632
0.00154856
0.00155079
0.00155303
0.00155527
0.00155751
0.00155975
0.00156199
0.00156424
0.00156648
0.00156873
0.00157098
0.00157323
0.00157548
0.00157774
0.00157999
0.00158225
0.00158451
0.00158677
0.00158903
0.00159129
0.00159356
0.00159582
0.00159809
0.00160036
0.00160263
0.00160491
0.00160718
0.00160946
0.00161174
0.00161402
0.0016163
0.00161858
0.00162087
0.00162315
0.00162544
0.00162773
0.00163002
0.00163231
0.00163461
0.0016369
0.0016392
0.00164149
0.0016438
0.0016461
0.0016484
0.0016507
0.00165301
0.00165532
0.00165763
0.00165995
0.00166226
0.00166457
0.00166689
0.00166921
0.00167153
0.00167385
0.00167617
0.0016785
0.00168083
0.00168316
0.00168548
0.00168781
0.00169015
0.00169248
0.00169482
0.00169715
0.0016995
0.00170184
0.00170418
0.00170652
0.00170887
0.00171122
0.00171356
0.00171592
0.00171827
0.00172062
0.00172298
0.00172533
0.00172769
0.00173005
0.00173241
0.00173478
0.00173714
0.00173951
0.00174188
0.00174424
0.00174662
0.00174899
0.00175137
0.00175374
0.00175612
0.0017585
0.00176088
0.00176326
0.00176565
0.00176803
0.00177042
0.00177281
0.0017752
0.00177759
0.00177999
0.00178238
0.00178478
0.00178718
0.00178958
0.00179198
0.00179439
0.00179679
0.0017992
0.00180161
0.00180402
0.00180643
0.00180884
0.00181126
0.00181368
0.00181609
0.00181851
0.00182093
0.00182336
0.00182578
0.00182821
0.00183064
0.00183307
0.0018355
0.00183793
0.00184036
0.0018428
0.00184524
0.00184767
0.00185012
0.00185256
0.001855
0.00185745
0.00185989
0.00186234
0.00186479
0.00186724
0.0018697
0.00187215
0.00187461
0.00187707
0.00187953
0.00188199
0.00188445
0.00188692
0.00188939
0.00189185
0.00189432
0.00189679
0.00189927
0.00190174
0.00190422
0.0019067
0.00190918
0.00191166
0.00191414
0.00191663
0.00191911
0.0019216
0.00192409
0.00192658
0.00192907
0.00193156
0.00193406
0.00193656
0.00193906
0.00194156
0.00194406
0.00194656
0.00194907
0.00195158
0.00195408
0.00195659
0.0019591
0.00196162
0.00196413
0.00196665
0.00196916
0.00197169
0.00197421
0.00197673
0.00197925
0.00198178
0.00198431
0.00198683
0.00198937
0.0019919
0.00199443
0.00199697
0.0019995
0.00200205
0.00200458
0.00200713
0.00200967
0.00201221
0.00201476
0.00201731
0.00201986
0.00202241
0.00202497
0.00202752
0.00203008
0.00203264
0.0020352
0.00203776
0.00204032
0.00204289
0.00204546
0.00204802
0.00205059
0.00205316
0.00205574
0.00205831
0.00206089
0.00206347
0.00206604
0.00206863
0.00207121
0.00207379
0.00207638
0.00207896
0.00208156
0.00208415
0.00208674
0.00208933
0.00209192
0.00209452
0.00209712
0.00209972
0.00210232
0.00210492
0.00210753
0.00211014
0.00211274
0.00211535
0.00211796
0.00212058
0.00212319
0.00212581
0.00212843
0.00213105
0.00213367
0.00213629
0.00213892
0.00214154
0.00214417
0.0021468
0.00214943
0.00215206
0.0021547
0.00215733
0.00215997
0.00216261
0.00216525
0.00216789
0.00217054
0.00217318
0.00217583
0.00217848
0.00218113
0.00218378
0.00218643
0.00218909
0.00219175
0.0021944
0.00219706
0.00219972
0.00220239
0.00220505
0.00220772
0.00221039
0.00221305
0.00221573
0.0022184
0.00222107
0.00222375
0.00222643
0.00222911
0.00223179
0.00223447
0.00223715
0.00223984
0.00224253
0.00224521
0.0022479
0.00225059
0.00225329
0.00225598
0.00225868
0.00226138
0.00226408
0.00226678
0.00226948
0.00227219
0.0022749
0.0022776
0.00228031
0.00228302
0.00228574
0.00228845
0.00229117
0.00229389
0.00229661
0.00229933
0.00230205
0.00230477
0.0023075
0.00231023
0.00231296
0.00231569
0.00231842
0.00232115
0.00232389
0.00232663
0.00232937
0.00233211
0.00233485
0.00233759
0.00234034
0.00234309
0.00234583
0.00234858
0.00235133
0.00235409
0.00235684
0.0023596
0.00236236
0.00236511
0.00236788
0.00237064
0.0023734
0.00237617
0.00237894
0.00238171
0.00238448
0.00238725
0.00239002
0.0023928
0.00239558
0.00239836
0.00240114
0.00240392
0.0024067
0.00240949
0.00241228
0.00241507
0.00241786
0.00242065
0.00242344
0.00242624
0.00242904
0.00243183
0.00243463
0.00243743
0.00244024
0.00244304
0.00244585
0.00244866
0.00245147
0.00245428
0.00245709
0.00245991
0.00246272
0.00246554
0.00246836
0.00247118
0.002474
0.00247683
0.00247965
0.00248248
0.00248531
0.00248814
0.00249097
0.0024938
0.00249664
0.00249948
0.00250231
0.00250515
0.002508
0.00251084
0.00251369
0.00251653
0.00251938
0.00252223
0.00252508
0.00252793
0.00253079
0.00253364
0.0025365
0.00253936
0.00254222
0.00254509
0.00254795
0.00255082
0.00255368
0.00255656
0.00255943
0.0025623
0.00256517
0.00256805
0.00257093
0.00257381
0.00257668
0.00257957
0.00258245
0.00258534
0.00258823
0.00259111
0.002594
0.00259689
0.00259979
0.00260268
0.00260558
0.00260848
0.00261138
0.00261428
0.00261718
0.00262009
0.00262299
0.0026259
0.00262881
0.00263172
0.00263463
0.00263755
0.00264046
0.00264338
0.0026463
0.00264922
0.00265214
0.00265506
0.00265799
0.00266092
0.00266385
0.00266678
0.00266971
0.00267264
0.00267558
0.00267852
0.00268145
0.0026844
0.00268734
0.00269028
0.00269323
0.00269617
0.00269912
0.00270207
0.00270503
0.00270798
0.00271093
0.00271389
0.00271685
0.00271981
0.00272277
0.00272573
0.00272869
0.00273166
0.00273463
0.0027376
0.00274057
0.00274354
0.00274651
0.00274949
0.00275247
0.00275544
0.00275843
0.00276141
0.00276439
0.00276738
0.00277036
0.00277335
0.00277634
0.00277933
0.00278233
0.00278532
0.00278832
0.00279131
0.00279432
0.00279732
0.00280032
0.00280332
0.00280633
0.00280934
0.00281235
0.00281535
0.00281837
0.00282138
0.0028244
0.00282742
0.00283044
0.00283345
0.00283648
0.0028395
0.00284253
0.00284556
0.00284858
0.00285162
0.00285465
0.00285768
0.00286072
0.00286375
0.00286679
0.00286983
0.00287288
0.00287592
0.00287896
0.00288201
0.00288506
0.00288811
0.00289116
0.00289421
0.00289727
0.00290032
0.00290338
0.00290644
0.0029095
0.00291256
0.00291563
0.00291869
0.00292176
0.00292483
0.0029279
0.00293097
0.00293405
0.00293712
0.00294019
0.00294327
0.00294635
0.00294944
0.00295252
0.0029556
0.00295869
0.00296178
0.00296487
0.00296796
0.00297106
0.00297415
0.00297725
0.00298034
0.00298345
0.00298655
0.00298965
0.00299275
0.00299586
0.00299897
0.00300208
0.00300519
0.0030083
0.00301141
0.00301453
0.00301765
0.00302077
0.00302389
0.00302701
0.00303014
0.00303326
0.00303639
0.00303952
0.00304265
0.00304578
0.00304891
0.00305205
0.00305518
0.00305832
0.00306146
0.0030646
0.00306774
0.00307089
0.00307404
0.00307719
0.00308034
0.00308348
0.00308664
0.00308979
0.00309295
0.00309611
0.00309926
0.00310242
0.00310558
0.00310875
0.00311192
0.00311508
0.00311825
0.00312142
0.00312459
0.00312777
0.00313095
0.00313412
0.0031373
0.00314048
0.00314366
0.00314685
0.00315003
0.00315322
0.00315641
0.0031596
0.00316279
0.00316598
0.00316918
0.00317237
0.00317557
0.00317877
0.00318197
0.00318517
0.00318838
0.00319159
0.00319479
0.003198
0.00320121
0.00320442
0.00320764
0.00321086
0.00321407
0.00321729
0.00322051
0.00322373
0.00322696
0.00323018
0.00323341
0.00323663
0.00323987
0.0032431
0.00324633
0.00324957
0.0032528
0.00325604
0.00325928
0.00326252
0.00326576
0.00326901
0.00327225
0.0032755
0.00327875
0.003282
0.00328526
0.00328851
0.00329177
0.00329503
0.00329828
0.00330154
0.00330481
0.00330807
0.00331134
0.0033146
0.00331787
0.00332114
0.00332442
0.00332769
0.00333096
0.00333424
0.00333752
0.0033408
0.00334408
0.00334737
0.00335065
0.00335394
0.00335723
0.00336052
0.00336381
0.0033671
0.00337039
0.00337369
0.00337699
0.00338029
0.00338359
0.00338689
0.0033902
0.0033935
0.00339681
0.00340012
0.00340343
0.00340674
0.00341005
0.00341337
0.00341668
0.00342
0.00342332
0.00342665
0.00342997
0.00343329
0.00343662
0.00343995
0.00344328
0.00344661
0.00344994
0.00345328
0.00345661
0.00345996
0.0034633
0.00346663
0.00346998
0.00347332
0.00347667
0.00348002
0.00348337
0.00348672
0.00349007
0.00349343
0.00349678
0.00350014
0.0035035
0.00350686
0.00351022
0.00351359
0.00351695
0.00352032
0.00352368
0.00352706
0.00353043
0.0035338
0.00353718
0.00354055
0.00354393
0.00354731
0.00355069
0.00355407
0.00355746
0.00356085
0.00356424
0.00356762
0.00357101
0.0035744
0.0035778
0.0035812
0.00358459
0.00358799
0.00359139
0.0035948
0.0035982
0.00360161
0.00360501
0.00360842
0.00361183
0.00361525
0.00361866
0.00362208
0.00362549
0.00362891
0.00363234
0.00363576
0.00363918
0.0036426
0.00364603
0.00364946
0.00365289
0.00365632
0.00365975
0.00366319
0.00366663
0.00367007
0.0036735
0.00367694
0.00368039
0.00368383
0.00368728
0.00369072
0.00369417
0.00369762
0.00370108
0.00370453
0.00370799
0.00371144
0.0037149
0.00371837
0.00372183
0.00372529
0.00372875
0.00373222
0.00373569
0.00373916
0.00374263
0.0037461
0.00374958
0.00375306
0.00375653
0.00376001
0.00376349
0.00376698
0.00377046
0.00377395
0.00377744
0.00378092
0.00378442
0.00378791
0.00379141
0.0037949
0.0037984
0.0038019
0.0038054
0.0038089
0.00381241
0.00381591
0.00381942
0.00382293
0.00382644
0.00382995
0.00383346
0.00383698
0.0038405
0.00384402
0.00384754
0.00385106
0.00385458
0.0038581
0.00386163
0.00386516
0.00386869
0.00387222
0.00387575
0.00387929
0.00388283
0.00388636
0.0038899
0.00389344
0.00389699
0.00390053
0.00390407
0.00390762
0.00391117
0.00391472
0.00391827
0.00392183
0.00392538
0.00392894
0.0039325
0.00393606
0.00393962
0.00394318
0.00394675
0.00395032
0.00395389
0.00395746
0.00396103
0.0039646
0.00396818
0.00397176
0.00397533
0.00397891
0.00398249
0.00398608
0.00398966
0.00399325
0.00399683
0.00400043
0.00400402
0.00400761
0.00401121
0.0040148
0.0040184
0.00402199
0.0040256
0.0040292
0.0040328
0.00403641
0.00404001
0.00404363
0.00404724
0.00405084
0.00405446
0.00405807
0.00406169
0.00406531
0.00406893
0.00407255
0.00407617
0.0040798
0.00408343
0.00408705
0.00409068
0.00409431
0.00409795
0.00410158
0.00410521
0.00410885
0.00411249
0.00411613
0.00411978
0.00412342
0.00412706
0.00413071
0.00413436
0.00413802
0.00414167
0.00414532
0.00414898
0.00415263
0.00415629
0.00415995
0.00416361
0.00416728
0.00417094
0.00417461
0.00417828
0.00418195
0.00418562
0.00418929
0.00419297
0.00419665
0.00420032
0.004204
0.00420768
0.00421137
0.00421505
0.00421874
0.00422242
0.00422611
0.00422981
0.0042335
0.00423719
0.00424089
0.00424458
0.00424828
0.00425198
0.00425568
0.00425939
0.00426309
0.0042668
0.00427051
0.00427422
0.00427793
0.00428164
0.00428536
0.00428908
0.0042928
0.00429651
0.00430024
0.00430396
0.00430769
0.00431141
0.00431514
0.00431887
0.0043226
0.00432633
0.00433007
0.0043338
0.00433754
0.00434128
0.00434502
0.00434877
0.00435251
0.00435625
0.00436
0.00436375
0.0043675
0.00437125
0.00437501
0.00437876
0.00438252
0.00438628
0.00439004
0.0043938
0.00439756
0.00440133
0.0044051
0.00440886
0.00441263
0.0044164
0.00442018
0.00442395
0.00442773
0.0044315
0.00443528
0.00443907
0.00444285
0.00444663
0.00445042
0.0044542
0.00445799
0.00446178
0.00446557
0.00446937
0.00447316
0.00447696
0.00448076
0.00448456
0.00448836
0.00449217
0.00449597
0.00449978
0.00450359
0.0045074
0.00451121
0.00451502
0.00451884
0.00452266
0.00452647
0.0045303
0.00453412
0.00453794
0.00454177
0.00454559
0.00454942
0.00455325
0.00455708
0.00456091
0.00456475
0.00456858
0.00457242
0.00457626
0.0045801
0.00458394
0.00458779
0.00459163
0.00459548
0.00459933
0.00460318
0.00460703
0.00461088
0.00461474
0.0046186
0.00462245
0.00462631
0.00463017
0.00463404
0.0046379
0.00464177
0.00464563
0.0046495
0.00465338
0.00465725
0.00466113
0.004665
0.00466888
0.00467276
0.00467664
0.00468052
0.00468441
0.00468829
0.00469218
0.00469607
0.00469996
0.00470385
0.00470775
0.00471164
0.00471554
0.00471944
0.00472334
0.00472724
0.00473114
0.00473505
0.00473896
0.00474287
0.00474678
0.00475069
0.0047546
0.00475852
0.00476243
0.00476635
0.00477027
0.00477419
0.00477812
0.00478204
0.00478596
0.00478989
0.00479382
0.00479775
0.00480168
0.00480562
0.00480955
0.00481349
0.00481743
0.00482137
0.00482531
0.00482925
0.0048332
0.00483715
0.00484109
0.00484504
0.004849
0.00485295
0.00485691
0.00486087
0.00486482
0.00486878
0.00487274
0.00487671
0.00488067
0.00488464
0.00488861
0.00489258
0.00489655
0.00490052
0.00490449
0.00490847
0.00491245
0.00491643
0.00492041
0.00492439
0.00492838
0.00493236
0.00493635
0.00494034
0.00494433
0.00494832
0.00495231
0.00495631
0.00496031
0.00496431
0.00496831
0.00497231
0.00497631
0.00498032
0.00498432
0.00498833
0.00499234
0.00499635
0.00500037
0.00500438
0.0050084
0.00501241
0.00501643
0.00502045
0.00502447
0.0050285
0.00503252
0.00503655
0.00504058
0.00504462
0.00504865
0.00505268
0.00505672
0.00506076
0.0050648
0.00506883
0.00507288
0.00507692
0.00508097
0.00508502
0.00508906
0.00509311
0.00509716
0.00510122
0.00510528
0.00510933
0.00511339
0.00511745
0.00512151
0.00512557
0.00512964
0.0051337
0.00513777
0.00514184
0.00514591
0.00514998
0.00515406
0.00515813
0.00516221
0.00516629
0.00517037
0.00517445
0.00517854
0.00518263
0.00518671
0.0051908
0.00519489
0.00519898
0.00520308
0.00520717
0.00521127
0.00521536
0.00521946
0.00522357
0.00522767
0.00523178
0.00523588
0.00523999
0.0052441
0.00524822
0.00525233
0.00525644
0.00526056
0.00526468
0.0052688
0.00527292
0.00527704
0.00528116
0.00528529
0.00528942
0.00529355
0.00529768
0.00530181
0.00530594
0.00531008
0.00531422
0.00531836