/*--------------------------------*- C++ -*----------------------------------*\
| =========                 |                                                 |
| \\      /  F ield         | OpenFOAM: The Open Source CFD Toolbox           |
|  \\    /   O peration     | Version:  2206                                  |
|   \\  /    A nd           | Website:  www.openfoam.com                      |
|    \\/     M anipulation  |                                                 |
\*---------------------------------------------------------------------------*/
FoamFile
{
    version     2.0;
    format      ascii;
    arch        "LSB;label=32;scalar=64";
    class       volVectorField;
    location    "140";
    object      U;
}
// * * * * * * * * * * * * * * * * * * * * * * * * * * * * * * * * * * * * * //

dimensions      [0 1 -1 0 0 0 0];

internalField   nonuniform List<vector> 
100000
(
(-1.45018e-11 5.57778e-06 -1.25727e-11)
(-1.47764e-11 9.76466e-06 -7.58784e-14)
(-1.11992e-11 1.79681e-05 8.58355e-14)
(-1.0566e-11 2.67692e-05 1.42847e-13)
(-1.23156e-11 3.48359e-05 8.7185e-14)
(-1.33111e-11 3.65206e-05 5.48996e-14)
(-1.75212e-11 4.47408e-05 1.00027e-13)
(-2.21967e-11 5.36219e-05 1.27692e-13)
(-2.65618e-11 6.24944e-05 1.38119e-13)
(-2.98885e-11 7.06216e-05 7.06275e-14)
(-2.9555e-11 7.22583e-05 6.53654e-14)
(-3.2399e-11 8.04612e-05 1.27689e-13)
(-3.75429e-11 8.93455e-05 1.26565e-13)
(-4.19843e-11 9.82234e-05 1.30457e-13)
(-4.57859e-11 0.000106368 7.09061e-14)
(-4.42626e-11 0.000107995 6.86542e-14)
(-4.79917e-11 0.00011619 1.25089e-13)
(-5.25429e-11 0.000125074 1.28135e-13)
(-5.72557e-11 0.000133954 1.28344e-13)
(-6.07899e-11 0.000142106 7.0833e-14)
(-5.9557e-11 0.000143731 6.81915e-14)
(-6.28123e-11 0.00015192 1.25043e-13)
(-6.80723e-11 0.000160807 1.29171e-13)
(-7.1793e-11 0.000169735 1.30733e-13)
(-7.71082e-11 0.000178618 1.2824e-13)
(-8.03331e-11 0.000186776 7.1574e-14)
(-7.91141e-11 0.000188399 6.84241e-14)
(-8.25425e-11 0.000196585 1.26936e-13)
(-8.74049e-11 0.000205469 1.28908e-13)
(-9.17436e-11 0.000214351 1.28572e-13)
(-9.57433e-11 0.000222511 7.05084e-14)
(-9.3907e-11 0.000224133 6.9001e-14)
(-9.78305e-11 0.000232317 1.26359e-13)
(-1.02297e-10 0.000241201 1.29101e-13)
(-1.06943e-10 0.000250083 1.27891e-13)
(-1.10696e-10 0.000258245 7.05445e-14)
(-1.09055e-10 0.000259867 6.87588e-14)
(-1.12829e-10 0.000268049 1.26516e-13)
(-1.17409e-10 0.000276934 1.28759e-13)
(-1.21965e-10 0.000285816 1.27808e-13)
(-1.25782e-10 0.000293979 7.02153e-14)
(-1.24097e-10 0.000295601 6.88921e-14)
(-1.27904e-10 0.000303782 1.26367e-13)
(-1.3246e-10 0.000312666 1.28738e-13)
(-1.37028e-10 0.000321548 1.27537e-13)
(-1.40837e-10 0.000329712 7.01488e-14)
(-1.39156e-10 0.000331334 6.88319e-14)
(-1.42966e-10 0.000339514 1.26404e-13)
(-1.47514e-10 0.000348398 1.28586e-13)
(-1.5209e-10 0.000357281 1.2745e-13)
(-1.55886e-10 0.000365446 6.99798e-14)
(-1.54223e-10 0.000367067 6.88958e-14)
(-1.58014e-10 0.000375247 1.2633e-13)
(-1.62584e-10 0.000384131 1.28565e-13)
(-1.67133e-10 0.000393014 1.27281e-13)
(-1.70958e-10 0.000401179 6.99412e-14)
(-1.6926e-10 0.000402801 6.88499e-14)
(-1.73094e-10 0.00041098 1.26373e-13)
(-1.77611e-10 0.000419864 1.2844e-13)
(-1.82223e-10 0.000428746 1.27258e-13)
(-1.8597e-10 0.000436913 6.97832e-14)
(-1.8437e-10 0.000438534 6.89537e-14)
(-1.88085e-10 0.000446712 1.2625e-13)
(-1.92748e-10 0.000455596 1.28519e-13)
(-1.97179e-10 0.000464479 1.27027e-13)
(-2.01147e-10 0.000472646 6.98979e-14)
(-1.99275e-10 0.000474267 6.875e-14)
(-2.03327e-10 0.000482445 1.26494e-13)
(-2.07575e-10 0.000491329 1.28172e-13)
(-2.12514e-10 0.000500212 1.27326e-13)
(-2.15858e-10 0.000508379 6.94008e-14)
(-2.14752e-10 0.00051 6.92954e-14)
(-2.17868e-10 0.000518178 1.25858e-13)
(-2.23262e-10 0.000527064 1.29446e-13)
(-2.26864e-10 0.000535993 1.29872e-13)
(-2.32264e-10 0.000544878 1.26953e-13)
(-2.35392e-10 0.000553045 7.02824e-14)
(-2.34262e-10 0.000554667 6.88209e-14)
(-2.37617e-10 0.000562844 1.26955e-13)
(-2.42541e-10 0.000571728 1.28511e-13)
(-2.46812e-10 0.000580611 1.27506e-13)
(-2.50857e-10 0.000588779 6.96994e-14)
(-2.48983e-10 0.0005904 6.92432e-14)
(-2.52943e-10 0.000598577 1.26577e-13)
(-2.57376e-10 0.00060746 1.28744e-13)
(-2.62043e-10 0.000616343 1.27211e-13)
(-2.65767e-10 0.000624512 6.98361e-14)
(-2.64153e-10 0.000626133 6.90902e-14)
(-2.67905e-10 0.000634309 1.26667e-13)
(-2.72505e-10 0.000643193 1.28607e-13)
(-2.77036e-10 0.000652076 1.27225e-13)
(-2.80868e-10 0.000660245 6.97378e-14)
(-2.79168e-10 0.000661866 6.91283e-14)
(-2.82991e-10 0.000670042 1.26611e-13)
(-2.87533e-10 0.000678926 1.28591e-13)
(-2.92111e-10 0.000687809 1.27157e-13)
(-2.95903e-10 0.000695978 6.97091e-14)
(-2.94239e-10 0.000697599 6.91212e-14)
(-2.9803e-10 0.000705775 1.26588e-13)
(-3.02602e-10 0.000714659 1.28564e-13)
(-3.07149e-10 0.000723542 1.27096e-13)
(-3.10973e-10 0.000731711 6.9694e-14)
(-3.09274e-10 0.000733332 6.9093e-14)
(-3.13106e-10 0.000741508 1.26599e-13)
(-3.17629e-10 0.000750392 1.28493e-13)
(-3.22236e-10 0.000759275 1.27101e-13)
(-3.25986e-10 0.000767444 6.96048e-14)
(-3.24379e-10 0.000769065 6.91619e-14)
(-3.28098e-10 0.000777241 1.26493e-13)
(-3.3276e-10 0.000786124 1.28573e-13)
(-3.37193e-10 0.000795008 1.2693e-13)
(-3.41158e-10 0.000803177 6.97389e-14)
(-3.39286e-10 0.000804798 6.89617e-14)
(-3.43334e-10 0.000812974 1.26718e-13)
(-3.47589e-10 0.000821857 1.28254e-13)
(-3.52523e-10 0.00083074 1.27251e-13)
(-3.55871e-10 0.00083891 6.92808e-14)
(-3.54757e-10 0.000840531 6.94879e-14)
(-3.57877e-10 0.000848706 1.26083e-13)
(-3.63271e-10 0.000857592 1.29533e-13)
(-3.66875e-10 0.000866521 1.298e-13)
(-3.72272e-10 0.000875406 1.26754e-13)
(-3.754e-10 0.000883576 7.01028e-14)
(-3.74271e-10 0.000885197 6.89193e-14)
(-3.77626e-10 0.000893372 1.27028e-13)
(-3.82551e-10 0.000902256 1.28459e-13)
(-3.8682e-10 0.000911139 1.27347e-13)
(-3.90864e-10 0.000919309 6.95418e-14)
(-3.88991e-10 0.00092093 6.93466e-14)
(-3.92951e-10 0.000929105 1.26651e-13)
(-3.97385e-10 0.000937989 1.28718e-13)
(-4.0205e-10 0.000946872 1.27075e-13)
(-4.05774e-10 0.000955042 6.97085e-14)
(-4.0416e-10 0.000956663 6.91848e-14)
(-4.07913e-10 0.000964838 1.26756e-13)
(-4.12513e-10 0.000973722 1.2859e-13)
(-4.17044e-10 0.000982605 1.27122e-13)
(-4.20874e-10 0.000990775 6.96211e-14)
(-4.19176e-10 0.000992396 6.92301e-14)
(-4.22996e-10 0.00100057 1.26696e-13)
(-4.27543e-10 0.00100945 1.28598e-13)
(-4.32115e-10 0.00101834 1.27064e-13)
(-4.35914e-10 0.00102651 6.96213e-14)
(-4.34241e-10 0.00102813 6.9207e-14)
(-4.38042e-10 0.0010363 1.26693e-13)
(-4.42602e-10 0.00104519 1.28562e-13)
(-4.47166e-10 0.00105407 1.27045e-13)
(-4.50968e-10 0.00106224 6.9592e-14)
(-4.49296e-10 0.00106386 6.92113e-14)
(-4.53093e-10 0.00107204 1.26666e-13)
(-4.57661e-10 0.00108092 1.28552e-13)
(-4.62211e-10 0.0010898 1.27003e-13)
(-4.66031e-10 0.00109797 6.95915e-14)
(-4.64336e-10 0.00109959 6.91841e-14)
(-4.68165e-10 0.00110777 1.26678e-13)
(-4.72691e-10 0.00111665 1.28497e-13)
(-4.77295e-10 0.00112554 1.2702e-13)
(-4.81046e-10 0.00113371 6.95213e-14)
(-4.79438e-10 0.00113533 6.92454e-14)
(-4.83158e-10 0.0011435 1.26582e-13)
(-4.8782e-10 0.00115239 1.2858e-13)
(-4.92254e-10 0.00116127 1.2687e-13)
(-4.96217e-10 0.00116944 6.96605e-14)
(-4.94346e-10 0.00117106 6.905e-14)
(-4.98393e-10 0.00117924 1.26803e-13)
(-5.02651e-10 0.00118812 1.28275e-13)
(-5.07582e-10 0.001197 1.27198e-13)
(-5.10932e-10 0.00120517 6.92172e-14)
(-5.09816e-10 0.00120679 6.95706e-14)
(-5.12937e-10 0.00121497 1.26173e-13)
(-5.18331e-10 0.00122385 1.29556e-13)
(-5.21935e-10 0.00123278 1.29748e-13)
(-5.27331e-10 0.00124167 1.2664e-13)
(-5.30458e-10 0.00124984 7.00073e-14)
(-5.29331e-10 0.00125146 6.89594e-14)
(-5.32686e-10 0.00125963 1.27047e-13)
(-5.37611e-10 0.00126852 1.28415e-13)
(-5.41878e-10 0.0012774 1.2725e-13)
(-5.45923e-10 0.00128557 6.94535e-14)
(-5.4405e-10 0.00128719 6.93912e-14)
(-5.48011e-10 0.00129537 1.26672e-13)
(-5.52445e-10 0.00130425 1.28688e-13)
(-5.57109e-10 0.00131313 1.26987e-13)
(-5.60833e-10 0.0013213 6.96334e-14)
(-5.5922e-10 0.00132293 6.92265e-14)
(-5.62972e-10 0.0013311 1.26786e-13)
(-5.67573e-10 0.00133998 1.28565e-13)
(-5.72103e-10 0.00134887 1.27048e-13)
(-5.75934e-10 0.00135704 6.95519e-14)
(-5.74235e-10 0.00135866 6.92743e-14)
(-5.78057e-10 0.00136683 1.26729e-13)
(-5.82601e-10 0.00137572 1.2858e-13)
(-5.87177e-10 0.0013846 1.27002e-13)
(-5.90969e-10 0.00139277 6.95563e-14)
(-5.89304e-10 0.00139439 6.92569e-14)
(-5.93096e-10 0.00140257 1.26722e-13)
(-5.97669e-10 0.00141145 1.28562e-13)
(-6.02216e-10 0.00142033 1.26978e-13)
(-6.06038e-10 0.0014285 6.95535e-14)
(-6.0434e-10 0.00143012 6.92354e-14)
(-6.08171e-10 0.0014383 1.26732e-13)
(-6.12696e-10 0.00144718 1.28514e-13)
(-6.17301e-10 0.00145607 1.26999e-13)
(-6.21052e-10 0.00146424 6.94896e-14)
(-6.19443e-10 0.00146586 6.92958e-14)
(-6.23164e-10 0.00147403 1.26638e-13)
(-6.27826e-10 0.00148292 1.28601e-13)
(-6.3226e-10 0.0014918 1.26855e-13)
(-6.36223e-10 0.00149997 6.96335e-14)
(-6.34351e-10 0.00150159 6.90996e-14)
(-6.38398e-10 0.00150976 1.26861e-13)
(-6.42657e-10 0.00151865 1.28298e-13)
(-6.47588e-10 0.00152753 1.2719e-13)
(-6.50938e-10 0.0015357 6.91926e-14)
(-6.4982e-10 0.00153732 6.96218e-14)
(-6.52943e-10 0.0015455 1.2623e-13)
(-6.58337e-10 0.00155438 1.29584e-13)
(-6.61941e-10 0.00156331 1.29736e-13)
(-6.67337e-10 0.0015722 1.26599e-13)
(-6.70463e-10 0.00158037 6.99658e-14)
(-6.69337e-10 0.00158199 6.89894e-14)
(-6.72691e-10 0.00159016 1.27069e-13)
(-6.77618e-10 0.00159905 1.28408e-13)
(-6.81884e-10 0.00160793 1.27213e-13)
(-6.85929e-10 0.0016161 6.94178e-14)
(-6.84056e-10 0.00161772 6.94208e-14)
(-6.88017e-10 0.0016259 1.26698e-13)
(-6.92451e-10 0.00163478 1.28685e-13)
(-6.97115e-10 0.00164366 1.26956e-13)
(-7.00839e-10 0.00165183 6.96013e-14)
(-6.99225e-10 0.00165346 6.92567e-14)
(-7.02978e-10 0.00166163 1.26815e-13)
(-7.07579e-10 0.00167051 1.28565e-13)
(-7.12109e-10 0.0016794 1.27024e-13)
(-7.15939e-10 0.00168757 6.95219e-14)
(-7.14242e-10 0.00168919 6.9307e-14)
(-7.18061e-10 0.00169736 1.26757e-13)
(-7.22609e-10 0.00170625 1.28587e-13)
(-7.2718e-10 0.00171513 1.26977e-13)
(-7.30979e-10 0.0017233 6.9536e-14)
(-7.29306e-10 0.00172492 6.92815e-14)
(-7.33107e-10 0.0017331 1.26763e-13)
(-7.37668e-10 0.00174198 1.28559e-13)
(-7.42231e-10 0.00175086 1.26975e-13)
(-7.46033e-10 0.00175903 6.95132e-14)
(-7.44361e-10 0.00176065 6.92896e-14)
(-7.48158e-10 0.00176883 1.26738e-13)
(-7.52727e-10 0.00177771 1.2856e-13)
(-7.57277e-10 0.00178659 1.26942e-13)
(-7.61097e-10 0.00179477 6.95242e-14)
(-7.594e-10 0.00179639 6.92602e-14)
(-7.6323e-10 0.00180456 1.26758e-13)
(-7.67757e-10 0.00181344 1.28511e-13)
(-7.7236e-10 0.00182233 1.26973e-13)
(-7.76112e-10 0.0018305 6.94594e-14)
(-7.74503e-10 0.00183212 6.93244e-14)
(-7.78224e-10 0.00184029 1.26663e-13)
(-7.82886e-10 0.00184918 1.28603e-13)
(-7.8732e-10 0.00185806 1.26831e-13)
(-7.91283e-10 0.00186623 6.96084e-14)
(-7.89411e-10 0.00186785 6.91266e-14)
(-7.93458e-10 0.00187603 1.2689e-13)
(-7.97717e-10 0.00188491 1.28301e-13)
(-8.02648e-10 0.00189379 1.27171e-13)
(-8.05998e-10 0.00190196 6.9168e-14)
(-8.0488e-10 0.00190359 6.96515e-14)
(-8.08002e-10 0.00191176 1.26258e-13)
(-8.13396e-10 0.00192065 1.29592e-13)
(-8.17e-10 0.00192957 1.29713e-13)
(-8.22396e-10 0.00193846 1.26558e-13)
(-8.25522e-10 0.00194663 6.99291e-14)
(-8.24397e-10 0.00194825 6.90046e-14)
(-8.27751e-10 0.00195643 1.27073e-13)
(-8.32678e-10 0.00196531 1.28392e-13)
(-8.36943e-10 0.00197419 1.27174e-13)
(-8.40988e-10 0.00198236 6.93861e-14)
(-8.39116e-10 0.00198398 6.94348e-14)
(-8.43077e-10 0.00199216 1.26706e-13)
(-8.47511e-10 0.00200104 1.2867e-13)
(-8.52175e-10 0.00200993 1.26923e-13)
(-8.55898e-10 0.0020181 6.95704e-14)
(-8.54286e-10 0.00201972 6.92734e-14)
(-8.58037e-10 0.00202789 1.26822e-13)
(-8.62639e-10 0.00203677 1.28556e-13)
(-8.67168e-10 0.00204566 1.26991e-13)
(-8.70999e-10 0.00205383 6.94965e-14)
(-8.693e-10 0.00205545 6.93208e-14)
(-8.73122e-10 0.00206362 1.26771e-13)
(-8.77667e-10 0.00207251 1.28575e-13)
(-8.82243e-10 0.00208139 1.26955e-13)
(-8.86035e-10 0.00208956 6.95048e-14)
(-8.8437e-10 0.00209118 6.9306e-14)
(-8.88162e-10 0.00209936 1.26766e-13)
(-8.92735e-10 0.00210824 1.28564e-13)
(-8.97281e-10 0.00211712 1.26936e-13)
(-9.01104e-10 0.0021253 6.95086e-14)
(-8.99406e-10 0.00212692 6.9284e-14)
(-9.03237e-10 0.00213509 1.26781e-13)
(-9.07762e-10 0.00214397 1.28521e-13)
(-9.12367e-10 0.00215286 1.26966e-13)
(-9.16118e-10 0.00216103 6.9448e-14)
(-9.14509e-10 0.00216265 6.93466e-14)
(-9.18229e-10 0.00217082 1.26689e-13)
(-9.22892e-10 0.00217971 1.28614e-13)
(-9.27326e-10 0.00218859 1.26827e-13)
(-9.31289e-10 0.00219676 6.95978e-14)
(-9.29417e-10 0.00219838 6.91495e-14)
(-9.33463e-10 0.00220656 1.26917e-13)
(-9.37723e-10 0.00221544 1.28314e-13)
(-9.42654e-10 0.00222432 1.27169e-13)
(-9.46005e-10 0.00223249 6.91587e-14)
(-9.44886e-10 0.00223412 6.96749e-14)
(-9.48008e-10 0.00224229 1.26285e-13)
(-9.53403e-10 0.00225117 1.29607e-13)
(-9.57007e-10 0.0022601 1.2971e-13)
(-9.62402e-10 0.00226899 1.26542e-13)
(-9.65528e-10 0.00227716 6.99121e-14)
(-9.64404e-10 0.00227878 6.9019e-14)
(-9.67757e-10 0.00228695 1.27085e-13)
(-9.72684e-10 0.00229584 1.28391e-13)
(-9.76949e-10 0.00230472 1.2716e-13)
(-9.80995e-10 0.00231289 6.93708e-14)
(-9.79122e-10 0.00231451 6.94496e-14)
(-9.83083e-10 0.00232269 1.26719e-13)
(-9.87517e-10 0.00233157 1.28671e-13)
(-9.92181e-10 0.00234045 1.2691e-13)
(-9.95904e-10 0.00234863 6.9557e-14)
(-9.94292e-10 0.00235025 6.9288e-14)
(-9.98044e-10 0.00235842 1.26838e-13)
(-1.00265e-09 0.0023673 1.28557e-13)
(-1.00717e-09 0.00237619 1.26982e-13)
(-1.011e-09 0.00238436 6.94826e-14)
(-1.00931e-09 0.00238598 6.93383e-14)
(-1.01313e-09 0.00239415 1.26785e-13)
(-1.01768e-09 0.00240304 1.28582e-13)
(-1.02225e-09 0.00241192 1.26943e-13)
(-1.02604e-09 0.00242009 6.94992e-14)
(-1.02437e-09 0.00242171 6.93149e-14)
(-1.02817e-09 0.00242989 1.26792e-13)
(-1.03273e-09 0.00243877 1.28559e-13)
(-1.0373e-09 0.00244765 1.26944e-13)
(-1.0411e-09 0.00245583 6.94808e-14)
(-1.03943e-09 0.00245745 6.93228e-14)
(-1.04322e-09 0.00246562 1.26771e-13)
(-1.04779e-09 0.0024745 1.28563e-13)
(-1.05234e-09 0.00248339 1.26918e-13)
(-1.05616e-09 0.00249156 6.94939e-14)
(-1.05447e-09 0.00249318 6.92954e-14)
(-1.0583e-09 0.00250135 1.26792e-13)
(-1.06282e-09 0.00251024 1.28518e-13)
(-1.06743e-09 0.00251912 1.26951e-13)
(-1.07118e-09 0.00252729 6.94331e-14)
(-1.06957e-09 0.00252891 6.93593e-14)
(-1.07329e-09 0.00253709 1.26701e-13)
(-1.07795e-09 0.00254597 1.28612e-13)
(-1.08239e-09 0.00255485 1.26814e-13)
(-1.08635e-09 0.00256302 6.95839e-14)
(-1.08448e-09 0.00256464 6.9163e-14)
(-1.08852e-09 0.00257282 1.26929e-13)
(-1.09278e-09 0.0025817 1.28314e-13)
(-1.09771e-09 0.00259058 1.27158e-13)
(-1.10106e-09 0.00259876 6.91465e-14)
(-1.09995e-09 0.00260038 6.96884e-14)
(-1.10307e-09 0.00260855 1.26299e-13)
(-1.10846e-09 0.00261744 1.29608e-13)
(-1.11207e-09 0.00262637 1.29698e-13)
(-1.11746e-09 0.00263525 1.26519e-13)
(-1.12059e-09 0.00264342 6.98935e-14)
(-1.11946e-09 0.00264504 6.90253e-14)
(-1.12282e-09 0.00265322 1.27086e-13)
(-1.12774e-09 0.0026621 1.2838e-13)
(-1.13201e-09 0.00267098 1.27139e-13)
(-1.13605e-09 0.00267916 6.93531e-14)
(-1.13418e-09 0.00268078 6.9457e-14)
(-1.13814e-09 0.00268895 1.26721e-13)
(-1.14258e-09 0.00269783 1.28663e-13)
(-1.14724e-09 0.00270672 1.26891e-13)
(-1.15096e-09 0.00271489 6.95409e-14)
(-1.14935e-09 0.00271651 6.92956e-14)
(-1.1531e-09 0.00272468 1.26841e-13)
(-1.15771e-09 0.00273357 1.2855e-13)
(-1.16223e-09 0.00274245 1.26964e-13)
(-1.16607e-09 0.00275062 6.94685e-14)
(-1.16437e-09 0.00275224 6.93448e-14)
(-1.16819e-09 0.00276042 1.26791e-13)
(-1.17273e-09 0.0027693 1.28574e-13)
(-1.17731e-09 0.00277818 1.26931e-13)
(-1.1811e-09 0.00278635 6.94802e-14)
(-1.17944e-09 0.00278798 6.93299e-14)
(-1.18323e-09 0.00279615 1.2679e-13)
(-1.1878e-09 0.00280503 1.28565e-13)
(-1.19235e-09 0.00281392 1.26917e-13)
(-1.19617e-09 0.00282209 6.94853e-14)
(-1.19447e-09 0.00282371 6.93096e-14)
(-1.1983e-09 0.00283188 1.26806e-13)
(-1.20283e-09 0.00284077 1.28525e-13)
(-1.20743e-09 0.00284965 1.26949e-13)
(-1.21118e-09 0.00285782 6.94277e-14)
(-1.20957e-09 0.00285944 6.93719e-14)
(-1.2133e-09 0.00286761 1.26716e-13)
(-1.21796e-09 0.0028765 1.28619e-13)
(-1.22239e-09 0.00288538 1.26813e-13)
(-1.22636e-09 0.00289355 6.95787e-14)
(-1.22448e-09 0.00289517 6.91764e-14)
(-1.22853e-09 0.00290335 1.26945e-13)
(-1.23279e-09 0.00291223 1.28323e-13)
(-1.23772e-09 0.00292111 1.27158e-13)
(-1.24107e-09 0.00292929 6.9142e-14)
(-1.23995e-09 0.00293091 6.97021e-14)
(-1.24307e-09 0.00293908 1.26315e-13)
(-1.24847e-09 0.00294797 1.29618e-13)
(-1.25207e-09 0.00295689 1.29698e-13)
(-1.25747e-09 0.00296578 1.26511e-13)
(-1.26059e-09 0.00297395 6.98845e-14)
(-1.25947e-09 0.00297557 6.9034e-14)
(-1.26282e-09 0.00298375 1.27094e-13)
(-1.26775e-09 0.00299263 1.28381e-13)
(-1.27202e-09 0.00300151 1.27132e-13)
(-1.27606e-09 0.00300969 6.9345e-14)
(-1.27419e-09 0.00301131 6.9466e-14)
(-1.27815e-09 0.00301948 1.2673e-13)
(-1.28258e-09 0.00302836 1.28664e-13)
(-1.28725e-09 0.00303725 1.26885e-13)
(-1.29097e-09 0.00304542 6.9534e-14)
(-1.28936e-09 0.00304704 6.93043e-14)
(-1.29311e-09 0.00305521 1.26851e-13)
(-1.29771e-09 0.0030641 1.28552e-13)
(-1.30224e-09 0.00307298 1.26961e-13)
(-1.30607e-09 0.00308115 6.94604e-14)
(-1.30437e-09 0.00308277 6.93564e-14)
(-1.30819e-09 0.00309095 1.26799e-13)
(-1.31274e-09 0.00309983 1.28581e-13)
(-1.31731e-09 0.00310871 1.26923e-13)
(-1.32111e-09 0.00311688 6.94798e-14)
(-1.31944e-09 0.0031185 6.93327e-14)
(-1.32324e-09 0.00312668 1.2681e-13)
(-1.3278e-09 0.00313556 1.28558e-13)
(-1.33236e-09 0.00314444 1.26928e-13)
(-1.33617e-09 0.00315262 6.94621e-14)
(-1.33449e-09 0.00315424 6.93422e-14)
(-1.33829e-09 0.00316241 1.26789e-13)
(-1.34286e-09 0.00317129 1.28566e-13)
(-1.34741e-09 0.00318018 1.26903e-13)
(-1.35123e-09 0.00318835 6.94777e-14)
(-1.34953e-09 0.00318997 6.93145e-14)
(-1.35336e-09 0.00319814 1.26813e-13)
(-1.35789e-09 0.00320703 1.28522e-13)
(-1.36249e-09 0.00321591 1.2694e-13)
(-1.36624e-09 0.00322408 6.94174e-14)
(-1.36463e-09 0.0032257 6.938e-14)
(-1.36836e-09 0.00323388 1.26721e-13)
(-1.37302e-09 0.00324276 1.28619e-13)
(-1.37745e-09 0.00325164 1.26804e-13)
(-1.38142e-09 0.00325982 6.95707e-14)
(-1.37954e-09 0.00326144 6.91832e-14)
(-1.38359e-09 0.00326961 1.26952e-13)
(-1.38785e-09 0.00327849 1.28321e-13)
(-1.39278e-09 0.00328738 1.27151e-13)
(-1.39613e-09 0.00329555 6.91334e-14)
(-1.39501e-09 0.00329717 6.97106e-14)
(-1.39814e-09 0.00330534 1.26322e-13)
(-1.40353e-09 0.00331423 1.29619e-13)
(-1.40713e-09 0.00332316 1.29689e-13)
(-1.41253e-09 0.00333204 1.26497e-13)
(-1.41565e-09 0.00334021 6.9872e-14)
(-1.41453e-09 0.00334184 6.90382e-14)
(-1.41788e-09 0.00335001 1.27093e-13)
(-1.42281e-09 0.00335889 1.28374e-13)
(-1.42708e-09 0.00336778 1.27118e-13)
(-1.43112e-09 0.00337595 6.93346e-14)
(-1.42925e-09 0.00337757 6.94693e-14)
(-1.43321e-09 0.00338574 1.26731e-13)
(-1.43764e-09 0.00339463 1.28658e-13)
(-1.44231e-09 0.00340351 1.26873e-13)
(-1.44603e-09 0.00341168 6.95227e-14)
(-1.44442e-09 0.0034133 6.93096e-14)
(-1.44817e-09 0.00342147 1.26851e-13)
(-1.45277e-09 0.00343036 1.28548e-13)
(-1.4573e-09 0.00343924 1.26948e-13)
(-1.46113e-09 0.00344741 6.94527e-14)
(-1.45943e-09 0.00344903 6.93584e-14)
(-1.46326e-09 0.00345721 1.26804e-13)
(-1.4678e-09 0.00346609 1.28572e-13)
(-1.47238e-09 0.00347497 1.26917e-13)
(-1.47617e-09 0.00348315 6.94647e-14)
(-1.4745e-09 0.00348477 6.93451e-14)
(-1.47829e-09 0.00349294 1.26803e-13)
(-1.48287e-09 0.00350182 1.28566e-13)
(-1.48741e-09 0.00351071 1.26904e-13)
(-1.49124e-09 0.00351888 6.9472e-14)
(-1.48954e-09 0.0035205 6.93244e-14)
(-1.49337e-09 0.00352867 1.26821e-13)
(-1.4979e-09 0.00353756 1.28527e-13)
(-1.5025e-09 0.00354644 1.26939e-13)
(-1.50625e-09 0.00355461 6.94146e-14)
(-1.50464e-09 0.00355623 6.93883e-14)
(-1.50836e-09 0.00356441 1.26732e-13)
(-1.51303e-09 0.00357329 1.28624e-13)
(-1.51746e-09 0.00358217 1.26804e-13)
(-1.52142e-09 0.00359035 6.95678e-14)
(-1.51955e-09 0.00359197 6.9192e-14)
(-1.5236e-09 0.00360014 1.26963e-13)
(-1.52786e-09 0.00360902 1.28327e-13)
(-1.53279e-09 0.00361791 1.27152e-13)
(-1.53614e-09 0.00362608 6.91308e-14)
(-1.53502e-09 0.0036277 6.97197e-14)
(-1.53814e-09 0.00363587 1.26333e-13)
(-1.54354e-09 0.00364476 1.29625e-13)
(-1.54714e-09 0.00365369 1.29689e-13)
(-1.55254e-09 0.00366257 1.26493e-13)
(-1.55566e-09 0.00367074 6.98666e-14)
(-1.55454e-09 0.00367236 6.90442e-14)
(-1.55789e-09 0.00368054 1.27099e-13)
(-1.56282e-09 0.00368942 1.28375e-13)
(-1.56708e-09 0.0036983 1.27114e-13)
(-1.57113e-09 0.00370648 6.93297e-14)
(-1.56926e-09 0.0037081 6.94754e-14)
(-1.57322e-09 0.00371627 1.26737e-13)
(-1.57765e-09 0.00372515 1.28659e-13)
(-1.58231e-09 0.00373404 1.2687e-13)
(-1.58604e-09 0.00374221 6.95187e-14)
(-1.58443e-09 0.00374383 6.93155e-14)
(-1.58818e-09 0.003752 1.26859e-13)
(-1.59278e-09 0.00376089 1.2855e-13)
(-1.59731e-09 0.00376977 1.26946e-13)
(-1.60114e-09 0.00377794 6.94473e-14)
(-1.59944e-09 0.00377956 6.93669e-14)
(-1.60326e-09 0.00378774 1.26809e-13)
(-1.60781e-09 0.00379662 1.28579e-13)
(-1.61238e-09 0.0038055 1.26911e-13)
(-1.61618e-09 0.00381368 6.94666e-14)
(-1.61451e-09 0.0038153 6.93449e-14)
(-1.61831e-09 0.00382347 1.2682e-13)
(-1.62287e-09 0.00383235 1.28559e-13)
(-1.62743e-09 0.00384124 1.26917e-13)
(-1.63123e-09 0.00384941 6.94511e-14)
(-1.62956e-09 0.00385103 6.93538e-14)
(-1.63336e-09 0.0038592 1.26802e-13)
(-1.63793e-09 0.00386809 1.28566e-13)
(-1.64248e-09 0.00387697 1.26894e-13)
(-1.6463e-09 0.00388514 6.94664e-14)
(-1.6446e-09 0.00388676 6.93277e-14)
(-1.64843e-09 0.00389494 1.26825e-13)
(-1.65296e-09 0.00390382 1.28525e-13)
(-1.65756e-09 0.0039127 1.26932e-13)
(-1.66131e-09 0.00392087 6.94083e-14)
(-1.6597e-09 0.0039225 6.93924e-14)
(-1.66342e-09 0.00393067 1.26736e-13)
(-1.66809e-09 0.00393955 1.28622e-13)
(-1.67252e-09 0.00394844 1.26798e-13)
(-1.67648e-09 0.00395661 6.95613e-14)
(-1.67461e-09 0.00395823 6.91972e-14)
(-1.67866e-09 0.0039664 1.26967e-13)
(-1.68292e-09 0.00397528 1.28327e-13)
(-1.68785e-09 0.00398417 1.27146e-13)
(-1.6912e-09 0.00399234 6.91258e-14)
(-1.69008e-09 0.00399396 6.97241e-14)
(-1.6932e-09 0.00400213 1.26338e-13)
(-1.6986e-09 0.00401102 1.29624e-13)
(-1.7022e-09 0.00401995 1.29684e-13)
(-1.7076e-09 0.00402883 1.26482e-13)
(-1.71072e-09 0.00403701 6.98589e-14)
(-1.7096e-09 0.00403863 6.90458e-14)
(-1.71295e-09 0.0040468 1.27099e-13)
(-1.71788e-09 0.00405568 1.2837e-13)
(-1.72214e-09 0.00406457 1.27105e-13)
(-1.72619e-09 0.00407274 6.93214e-14)
(-1.72432e-09 0.00407436 6.94783e-14)
(-1.72828e-09 0.00408253 1.26737e-13)
(-1.73271e-09 0.00409142 1.28655e-13)
(-1.73737e-09 0.0041003 1.2686e-13)
(-1.7411e-09 0.00410847 6.95117e-14)
(-1.73949e-09 0.00411009 6.93179e-14)
(-1.74324e-09 0.00411827 1.26859e-13)
(-1.74784e-09 0.00412715 1.28546e-13)
(-1.75237e-09 0.00413603 1.26938e-13)
(-1.7562e-09 0.00414421 6.94412e-14)
(-1.7545e-09 0.00414583 6.93684e-14)
(-1.75832e-09 0.004154 1.26812e-13)
(-1.76287e-09 0.00416288 1.28573e-13)
(-1.76744e-09 0.00417177 1.26907e-13)
(-1.77123e-09 0.00417994 6.94554e-14)
(-1.76957e-09 0.00418156 6.93542e-14)
(-1.77336e-09 0.00418973 1.26813e-13)
(-1.77794e-09 0.00419862 1.28566e-13)
(-1.78248e-09 0.0042075 1.26896e-13)
(-1.7863e-09 0.00421567 6.94622e-14)
(-1.78461e-09 0.00421729 6.93353e-14)
(-1.78844e-09 0.00422546 1.26831e-13)
(-1.79296e-09 0.00423435 1.28529e-13)
(-1.79757e-09 0.00424323 1.26931e-13)
(-1.80132e-09 0.0042514 6.94068e-14)
(-1.79971e-09 0.00425302 6.93982e-14)
(-1.80343e-09 0.0042612 1.26744e-13)
(-1.80809e-09 0.00427008 1.28626e-13)
(-1.81253e-09 0.00427896 1.26799e-13)
(-1.81649e-09 0.00428714 6.95595e-14)
(-1.81462e-09 0.00428876 6.92037e-14)
(-1.81866e-09 0.00429693 1.26975e-13)
(-1.82292e-09 0.00430581 1.28332e-13)
(-1.82785e-09 0.0043147 1.27147e-13)
(-1.83121e-09 0.00432287 6.91244e-14)
(-1.83008e-09 0.00432449 6.97307e-14)
(-1.83321e-09 0.00433266 1.26346e-13)
(-1.8386e-09 0.00434155 1.29629e-13)
(-1.84221e-09 0.00435048 1.29684e-13)
(-1.8476e-09 0.00435936 1.26479e-13)
(-1.85073e-09 0.00436754 6.98555e-14)
(-1.8496e-09 0.00436916 6.90501e-14)
(-1.85296e-09 0.00437733 1.27103e-13)
(-1.85789e-09 0.00438621 1.28371e-13)
(-1.86215e-09 0.0043951 1.27102e-13)
(-1.86619e-09 0.00440327 6.93182e-14)
(-1.86432e-09 0.00440489 6.9483e-14)
(-1.86828e-09 0.00441306 1.26742e-13)
(-1.87272e-09 0.00442195 1.28657e-13)
(-1.87738e-09 0.00443083 1.26858e-13)
(-1.8811e-09 0.004439 6.95093e-14)
(-1.87949e-09 0.00444062 6.93221e-14)
(-1.88324e-09 0.0044488 1.26865e-13)
(-1.88785e-09 0.00445768 1.28547e-13)
(-1.89238e-09 0.00446656 1.26937e-13)
(-1.89621e-09 0.00447473 6.94372e-14)
(-1.89451e-09 0.00447636 6.93753e-14)
(-1.89833e-09 0.00448453 1.26815e-13)
(-1.90288e-09 0.00449341 1.28578e-13)
(-1.90745e-09 0.0045023 1.26902e-13)
(-1.91124e-09 0.00451047 6.94586e-14)
(-1.90957e-09 0.00451209 6.93523e-14)
(-1.91337e-09 0.00452026 1.26828e-13)
(-1.91794e-09 0.00452914 1.28558e-13)
(-1.9225e-09 0.00453803 1.2691e-13)
(-1.9263e-09 0.0045462 6.94423e-14)
(-1.92463e-09 0.00454782 6.93629e-14)
(-1.92842e-09 0.00455599 1.26809e-13)
(-1.93299e-09 0.00456488 1.28568e-13)
(-1.93754e-09 0.00457376 1.26887e-13)
(-1.94136e-09 0.00458193 6.94598e-14)
(-1.93967e-09 0.00458355 6.93358e-14)
(-1.9435e-09 0.00459173 1.26834e-13)
(-1.94802e-09 0.00460061 1.28526e-13)
(-1.95263e-09 0.00460949 1.26927e-13)
(-1.95638e-09 0.00461767 6.94008e-14)
(-1.95477e-09 0.00461929 6.94023e-14)
(-1.95849e-09 0.00462746 1.26745e-13)
(-1.96315e-09 0.00463634 1.28625e-13)
(-1.96759e-09 0.00464523 1.26793e-13)
(-1.97155e-09 0.0046534 6.95559e-14)
(-1.96968e-09 0.00465502 6.92059e-14)
(-1.97372e-09 0.00466319 1.26978e-13)
(-1.97798e-09 0.00467208 1.2833e-13)
(-1.98291e-09 0.00468096 1.27143e-13)
(-1.98627e-09 0.00468913 6.91193e-14)
(-1.98515e-09 0.00469075 6.97348e-14)
(-1.98827e-09 0.00469893 1.26348e-13)
(-1.99366e-09 0.00470781 1.2963e-13)
(-1.99727e-09 0.00471674 1.29679e-13)
(-2.00266e-09 0.00472563 1.26472e-13)
(-2.00579e-09 0.0047338 6.98485e-14)
(-2.00467e-09 0.00473542 6.90523e-14)
(-2.00802e-09 0.00474359 1.27102e-13)
(-2.01295e-09 0.00475248 1.28367e-13)
(-2.01721e-09 0.00476136 1.27094e-13)
(-2.02126e-09 0.00476953 6.93134e-14)
(-2.01938e-09 0.00477115 6.94835e-14)
(-2.02334e-09 0.00477932 1.26742e-13)
(-2.02778e-09 0.00478821 1.28652e-13)
(-2.03244e-09 0.00479709 1.26853e-13)
(-2.03616e-09 0.00480526 6.95027e-14)
(-2.03455e-09 0.00480688 6.9325e-14)
(-2.0383e-09 0.00481506 1.26864e-13)
(-2.04291e-09 0.00482394 1.28545e-13)
(-2.04743e-09 0.00483282 1.26929e-13)
(-2.05127e-09 0.004841 6.94343e-14)
(-2.04957e-09 0.00484262 6.93744e-14)
(-2.05339e-09 0.00485079 1.26819e-13)
(-2.05793e-09 0.00485967 1.28571e-13)
(-2.06251e-09 0.00486856 1.26901e-13)
(-2.0663e-09 0.00487673 6.94474e-14)
(-2.06464e-09 0.00487835 6.9362e-14)
(-2.06843e-09 0.00488652 1.26819e-13)
(-2.073e-09 0.00489541 1.28567e-13)
(-2.07755e-09 0.00490429 1.2689e-13)
(-2.08137e-09 0.00491246 6.94564e-14)
(-2.07967e-09 0.00491408 6.93418e-14)
(-2.0835e-09 0.00492226 1.26839e-13)
(-2.08803e-09 0.00493114 1.2853e-13)
(-2.09263e-09 0.00494002 1.26927e-13)
(-2.09639e-09 0.0049482 6.94e-14)
(-2.09478e-09 0.00494982 6.94067e-14)
(-2.0985e-09 0.00495799 1.26751e-13)
(-2.10316e-09 0.00496687 1.28629e-13)
(-2.10759e-09 0.00497576 1.26794e-13)
(-2.11156e-09 0.00498393 6.95548e-14)
(-2.10968e-09 0.00498555 6.92108e-14)
(-2.11373e-09 0.00499372 1.26984e-13)
(-2.11799e-09 0.00500261 1.28333e-13)
(-2.12292e-09 0.00501149 1.27145e-13)
(-2.12627e-09 0.00501966 6.91184e-14)
(-2.12515e-09 0.00502128 6.97399e-14)
(-2.12828e-09 0.00502946 1.26354e-13)
(-2.13367e-09 0.00503834 1.29634e-13)
(-2.13727e-09 0.00504727 1.2968e-13)
(-2.14267e-09 0.00505615 1.26471e-13)
(-2.14579e-09 0.00506433 6.98461e-14)
(-2.14467e-09 0.00506595 6.90558e-14)
(-2.14802e-09 0.00507412 1.27105e-13)
(-2.15295e-09 0.005083 1.28369e-13)
(-2.15722e-09 0.00509189 1.27093e-13)
(-2.16126e-09 0.00510006 6.93113e-14)
(-2.15939e-09 0.00510168 6.94871e-14)
(-2.16335e-09 0.00510985 1.26746e-13)
(-2.16778e-09 0.00511874 1.28654e-13)
(-2.17245e-09 0.00512762 1.26851e-13)
(-2.17617e-09 0.00513579 6.95011e-14)
(-2.17456e-09 0.00513741 6.93282e-14)
(-2.17831e-09 0.00514559 1.26869e-13)
(-2.18291e-09 0.00515447 1.28546e-13)
(-2.18744e-09 0.00516335 1.2693e-13)
(-2.19127e-09 0.00517153 6.94312e-14)
(-2.18958e-09 0.00517315 6.93801e-14)
(-2.19339e-09 0.00518132 1.26821e-13)
(-2.19794e-09 0.0051902 1.28577e-13)
(-2.20251e-09 0.00519909 1.26897e-13)
(-2.20631e-09 0.00520726 6.94514e-14)
(-2.20464e-09 0.00520888 6.93591e-14)
(-2.20844e-09 0.00521705 1.26832e-13)
(-2.213e-09 0.00522594 1.28559e-13)
(-2.21756e-09 0.00523482 1.26904e-13)
(-2.22137e-09 0.00524299 6.94373e-14)
(-2.21969e-09 0.00524461 6.93683e-14)
(-2.22349e-09 0.00525279 1.26816e-13)
(-2.22806e-09 0.00526167 1.28568e-13)
(-2.23261e-09 0.00527055 1.26883e-13)
(-2.23643e-09 0.00527872 6.94534e-14)
(-2.23473e-09 0.00528035 6.93431e-14)
(-2.23856e-09 0.00528852 1.2684e-13)
(-2.24309e-09 0.0052974 1.28528e-13)
(-2.24769e-09 0.00530629 1.26922e-13)
(-2.25145e-09 0.00531446 6.93967e-14)
(-2.24984e-09 0.00531608 6.94082e-14)
(-2.25356e-09 0.00532425 1.26753e-13)
(-2.25822e-09 0.00533313 1.28627e-13)
(-2.26265e-09 0.00534202 1.26791e-13)
(-2.26662e-09 0.00535019 6.95505e-14)
(-2.26474e-09 0.00535181 6.92138e-14)
(-2.26879e-09 0.00535998 1.26985e-13)
(-2.27305e-09 0.00536887 1.28333e-13)
(-2.27798e-09 0.00537775 1.2714e-13)
(-2.28133e-09 0.00538592 6.91159e-14)
(-2.28021e-09 0.00538754 6.97413e-14)
(-2.28334e-09 0.00539572 1.26357e-13)
(-2.28873e-09 0.0054046 1.29632e-13)
(-2.29233e-09 0.00541353 1.29677e-13)
(-2.29773e-09 0.00542242 1.26464e-13)
(-2.30086e-09 0.00543059 6.98422e-14)
(-2.29973e-09 0.00543221 6.90557e-14)
(-2.30308e-09 0.00544038 1.27105e-13)
(-2.30801e-09 0.00544927 1.28364e-13)
(-2.31228e-09 0.00545815 1.27088e-13)
(-2.31632e-09 0.00546632 6.93059e-14)
(-2.31445e-09 0.00546794 6.94889e-14)
(-2.31841e-09 0.00547612 1.26744e-13)
(-2.32285e-09 0.005485 1.28652e-13)
(-2.32751e-09 0.00549388 1.26845e-13)
(-2.33123e-09 0.00550206 6.94974e-14)
(-2.32962e-09 0.00550368 6.93288e-14)
(-2.33337e-09 0.00551185 1.26868e-13)