/*--------------------------------*- C++ -*----------------------------------*\
| =========                 |                                                 |
| \\      /  F ield         | OpenFOAM: The Open Source CFD Toolbox           |
|  \\    /   O peration     | Version:  2206                                  |
|   \\  /    A nd           | Website:  www.openfoam.com                      |
|    \\/     M anipulation  |                                                 |
\*---------------------------------------------------------------------------*/
FoamFile
{
    version     2.0;
    format      ascii;
    arch        "LSB;label=32;scalar=64";
    class       volScalarField;
    location    "480";
    object      p;
}
// * * * * * * * * * * * * * * * * * * * * * * * * * * * * * * * * * * * * * //

dimensions      [0 2 -2 0 0 0 0];

internalField   nonuniform List<scalar> 
100000
(
-1.17993e-09
-2.23209e-09
1.99271e-09
1.22411e-08
2.17357e-08
3.32987e-08
4.03929e-08
5.61888e-08
6.95794e-08
9.03078e-08
1.08946e-07
1.27252e-07
1.50624e-07
1.74541e-07
2.03384e-07
2.32357e-07
2.58853e-07
2.92637e-07
3.24691e-07
3.64131e-07
4.00969e-07
4.3841e-07
4.7967e-07
5.23208e-07
5.69535e-07
6.19173e-07
6.7003e-07
7.1772e-07
7.7307e-07
8.26698e-07
8.87372e-07
9.46165e-07
1.00437e-06
1.06811e-06
1.13187e-06
1.20125e-06
1.26992e-06
1.33704e-06
1.4105e-06
1.48331e-06
1.5623e-06
1.6401e-06
1.71676e-06
1.79942e-06
1.88172e-06
1.96995e-06
2.0572e-06
2.14314e-06
2.23523e-06
2.32681e-06
2.42448e-06
2.52101e-06
2.61638e-06
2.71776e-06
2.81878e-06
2.92571e-06
3.0317e-06
3.13632e-06
3.24719e-06
3.35741e-06
3.47389e-06
3.58902e-06
3.70325e-06
3.82318e-06
3.94313e-06
4.06853e-06
4.19354e-06
4.31651e-06
4.44655e-06
4.57496e-06
4.7108e-06
4.84388e-06
4.97776e-06
5.1153e-06
5.25529e-06
5.39792e-06
5.54402e-06
5.69115e-06
5.83529e-06
5.987e-06
6.13703e-06
6.29412e-06
6.44926e-06
6.60389e-06
6.76403e-06
6.92419e-06
7.09e-06
7.25503e-06
7.41858e-06
7.58845e-06
7.75767e-06
7.93309e-06
8.10728e-06
8.28036e-06
8.45946e-06
8.63815e-06
8.82285e-06
9.00645e-06
9.18887e-06
9.37734e-06
9.5654e-06
9.75943e-06
9.95245e-06
1.01442e-05
1.03421e-05
1.05394e-05
1.07429e-05
1.09451e-05
1.11464e-05
1.13534e-05
1.15604e-05
1.17729e-05
1.1985e-05
1.21951e-05
1.24122e-05
1.26276e-05
1.28506e-05
1.30707e-05
1.32917e-05
1.35163e-05
1.37434e-05
1.3973e-05
1.42062e-05
1.44404e-05
1.46717e-05
1.49104e-05
1.51476e-05
1.53917e-05
1.56339e-05
1.58756e-05
1.61229e-05
1.63701e-05
1.6623e-05
1.68751e-05
1.71257e-05
1.73827e-05
1.7639e-05
1.79015e-05
1.81627e-05
1.84229e-05
1.86891e-05
1.89549e-05
1.92266e-05
1.94973e-05
1.97668e-05
2.00424e-05
2.03175e-05
2.05987e-05
2.08787e-05
2.11576e-05
2.14425e-05
2.1727e-05
2.20175e-05
2.23069e-05
2.25951e-05
2.28895e-05
2.31832e-05
2.34832e-05
2.37818e-05
2.40796e-05
2.4383e-05
2.46865e-05
2.49954e-05
2.53039e-05
2.56104e-05
2.5924e-05
2.62359e-05
2.65553e-05
2.68719e-05
2.71893e-05
2.75103e-05
2.78339e-05
2.816e-05
2.84896e-05
2.88203e-05
2.9148e-05
2.94832e-05
2.98167e-05
3.01574e-05
3.0496e-05
3.08342e-05
3.11778e-05
3.15215e-05
3.18709e-05
3.22194e-05
3.25665e-05
3.29199e-05
3.32727e-05
3.36316e-05
3.39893e-05
3.43459e-05
3.47086e-05
3.50708e-05
3.5439e-05
3.58061e-05
3.61721e-05
3.65441e-05
3.69157e-05
3.72933e-05
3.76698e-05
3.8045e-05
3.84265e-05
3.88073e-05
3.91944e-05
3.95801e-05
3.9965e-05
4.03555e-05
4.07461e-05
4.11421e-05
4.15377e-05
4.19313e-05
4.23319e-05
4.27309e-05
4.31374e-05
4.3541e-05
4.39456e-05
4.43537e-05
4.47643e-05
4.51775e-05
4.55943e-05
4.6012e-05
4.64268e-05
4.68491e-05
4.72697e-05
4.76974e-05
4.81231e-05
4.85484e-05
4.89792e-05
4.94099e-05
4.98464e-05
5.0282e-05
5.07162e-05
5.11567e-05
5.15965e-05
5.20425e-05
5.24873e-05
5.2931e-05
5.33807e-05
5.38301e-05
5.42854e-05
5.47396e-05
5.51926e-05
5.56517e-05
5.61104e-05
5.65751e-05
5.70386e-05
5.75011e-05
5.79695e-05
5.84376e-05
5.89116e-05
5.93846e-05
5.98563e-05
6.03342e-05
6.08114e-05
6.1295e-05
6.17771e-05
6.22585e-05
6.27454e-05
6.32324e-05
6.37249e-05
6.4217e-05
6.4707e-05
6.52041e-05
6.56996e-05
6.62025e-05
6.67026e-05
6.72036e-05
6.77081e-05
6.82152e-05
6.87249e-05
6.92381e-05
6.97522e-05
7.02635e-05
7.07822e-05
7.12993e-05
7.18235e-05
7.23457e-05
7.28674e-05
7.33946e-05
7.39218e-05
7.44547e-05
7.49868e-05
7.55174e-05
7.60543e-05
7.65906e-05
7.71331e-05
7.76744e-05
7.82145e-05
7.87607e-05
7.93065e-05
7.98582e-05
8.04089e-05
8.09584e-05
8.15139e-05
8.20691e-05
8.26302e-05
8.31903e-05
8.3749e-05
8.4314e-05
8.48784e-05
8.54491e-05
8.60183e-05
8.65867e-05
8.71608e-05
8.77348e-05
8.83144e-05
8.88935e-05
8.94707e-05
9.00549e-05
9.06374e-05
9.12274e-05
9.18146e-05
9.24027e-05
9.29943e-05
9.35885e-05
9.41853e-05
9.47855e-05
9.53868e-05
9.59851e-05
9.6591e-05
9.71952e-05
9.78064e-05
9.84157e-05
9.90245e-05
9.96388e-05
0.000100253
0.000100873
0.000101492
0.00010211
0.000102734
0.000103357
0.000103987
0.000104615
0.000105243
0.000105876
0.000106509
0.000107147
0.000107785
0.000108422
0.000109064
0.000109707
0.000110355
0.000111002
0.000111648
0.0001123
0.000112952
0.000113609
0.000114266
0.000114921
0.000115582
0.000116243
0.00011691
0.000117576
0.000118241
0.000118911
0.000119582
0.000120258
0.000120933
0.000121607
0.000122288
0.000122967
0.000123653
0.000124337
0.000125021
0.000125709
0.0001264
0.000127093
0.00012779
0.000128488
0.000129182
0.000129885
0.000130585
0.000131293
0.000131999
0.000132704
0.000133415
0.000134126
0.000134842
0.000135558
0.000136272
0.000136992
0.000137712
0.000138438
0.000139163
0.000139887
0.000140616
0.000141346
0.000142081
0.000142815
0.000143548
0.000144287
0.000145026
0.000145771
0.000146514
0.000147257
0.000148005
0.000148753
0.000149507
0.00015026
0.000151012
0.00015177
0.000152527
0.00015329
0.000154053
0.000154814
0.000155581
0.000156347
0.000157121
0.000157892
0.000158663
0.000159439
0.000160216
0.000160997
0.00016178
0.000162565
0.000163347
0.000164136
0.000164924
0.000165719
0.000166512
0.000167304
0.000168102
0.0001689
0.000169703
0.000170506
0.000171307
0.000172115
0.000172922
0.000173735
0.000174547
0.000175358
0.000176174
0.000176991
0.000177813
0.000178635
0.000179455
0.000180281
0.000181107
0.000181938
0.000182769
0.000183599
0.000184434
0.000185269
0.00018611
0.00018695
0.000187789
0.000188634
0.000189479
0.000190329
0.000191178
0.000192027
0.000192881
0.000193735
0.000194595
0.000195454
0.000196311
0.000197175
0.000198037
0.000198908
0.000199775
0.000200643
0.000201514
0.000202389
0.000203265
0.000204146
0.000205027
0.000205905
0.000206791
0.000207675
0.000208566
0.000209456
0.000210345
0.000211239
0.000212133
0.000213033
0.000213932
0.00021483
0.000215734
0.000216637
0.000217547
0.000218455
0.000219363
0.000220276
0.000221189
0.000222108
0.000223025
0.000223942
0.000224864
0.000225787
0.000226715
0.000227642
0.000228568
0.0002295
0.000230431
0.000231369
0.000232306
0.000233241
0.000234182
0.000235123
0.00023607
0.000237016
0.00023796
0.000238912
0.000239861
0.000240818
0.000241773
0.000242728
0.000243687
0.000244648
0.000245612
0.000246579
0.000247547
0.000248513
0.000249486
0.000250457
0.000251435
0.000252412
0.000253388
0.000254369
0.00025535
0.000256337
0.000257324
0.000258309
0.0002593
0.00026029
0.000261287
0.000262282
0.000263277
0.000264277
0.000265277
0.000266283
0.000267288
0.000268291
0.000269301
0.00027031
0.000271326
0.00027234
0.000273353
0.000274372
0.000275391
0.000276415
0.000277439
0.000278461
0.00027949
0.000280518
0.000281552
0.000282585
0.000283617
0.000284654
0.000285692
0.000286735
0.000287778
0.000288818
0.000289866
0.000290912
0.000291966
0.000293016
0.000294068
0.000295123
0.000296181
0.000297241
0.000298305
0.00029937
0.000300432
0.000301501
0.000302569
0.000303644
0.000304716
0.000305789
0.000306867
0.000307944
0.000309028
0.000310111
0.000311192
0.000312279
0.000313366
0.00031446
0.000315551
0.000316642
0.000317739
0.000318835
0.000319938
0.000321039
0.000322139
0.000323245
0.000324351
0.000325463
0.000326574
0.000327683
0.000328799
0.000329914
0.000331035
0.000332155
0.000333274
0.000334399
0.000335523
0.000336653
0.000337783
0.000338911
0.000340046
0.000341179
0.00034232
0.000343457
0.000344596
0.000345738
0.000346883
0.000348031
0.000349182
0.000350333
0.000351482
0.000352639
0.000353794
0.000354956
0.000356115
0.000357275
0.00035844
0.000359605
0.000360775
0.000361945
0.000363114
0.000364288
0.000365462
0.000366642
0.000367821
0.000368999
0.000370183
0.000371367
0.000372556
0.000373745
0.000374932
0.000376125
0.000377318
0.000378517
0.000379714
0.000380911
0.000382114
0.000383316
0.000384524
0.000385731
0.000386937
0.000388149
0.000389361
0.000390578
0.000391795
0.00039301
0.000394231
0.000395452
0.000396679
0.000397905
0.00039913
0.000400361
0.00040159
0.000402828
0.000404062
0.000405297
0.000406536
0.000407777
0.000409021
0.000410268
0.000411517
0.000412762
0.000414015
0.000415266
0.000416525
0.000417781
0.000419037
0.000420298
0.00042156
0.000422827
0.000424093
0.000425358
0.000426629
0.000427899
0.000429176
0.000430451
0.000431726
0.000433006
0.000434286
0.000435572
0.000436857
0.00043814
0.00043943
0.000440719
0.000442015
0.000443309
0.000444602
0.000445901
0.0004472
0.000448504
0.000449808
0.00045111
0.000452419
0.000453727
0.000455041
0.000456354
0.000457665
0.000458984
0.0004603
0.000461625
0.000462946
0.000464268
0.000465594
0.000466922
0.000468253
0.000469588
0.000470923
0.000472256
0.000473596
0.000474934
0.00047628
0.000477623
0.000478966
0.000480314
0.000481663
0.000483017
0.00048437
0.000485722
0.000487081
0.000488438
0.000489802
0.000491164
0.000492526
0.000493893
0.00049526
0.000496633
0.000498005
0.000499376
0.000500753
0.000502129
0.000503512
0.000504893
0.000506273
0.000507659
0.000509045
0.000510437
0.000511827
0.000513217
0.000514612
0.000516007
0.000517409
0.000518809
0.000520208
0.000521612
0.000523017
0.000524427
0.000525837
0.000527245
0.00052866
0.000530073
0.000531493
0.000532911
0.00053433
0.000535752
0.000537177
0.000538604
0.000540035
0.000541467
0.000542896
0.000544333
0.000545767
0.000547209
0.000548649
0.000550089
0.000551534
0.000552979
0.000554429
0.000555879
0.000557327
0.000558782
0.000560236
0.000561696
0.000563155
0.000564613
0.000566077
0.00056754
0.00056901
0.000570478
0.000571945
0.000573419
0.000574892
0.00057637
0.000577848
0.000579325
0.000580807
0.00058229
0.000583778
0.000585265
0.000586751
0.000588243
0.000589735
0.000591232
0.000592729
0.000594224
0.000595725
0.000597226
0.000598733
0.000600238
0.000601744
0.000603254
0.000604765
0.00060628
0.000607798
0.000609317
0.000610833
0.000612357
0.000613878
0.000615407
0.000616934
0.000618461
0.000619993
0.000621525
0.000623063
0.0006246
0.000626135
0.000627677
0.000629218
0.000630765
0.000632311
0.000633856
0.000635407
0.000636958
0.000638514
0.00064007
0.000641624
0.000643184
0.000644744
0.00064631
0.000647875
0.000649439
0.000651009
0.000652578
0.000654153
0.000655727
0.0006573
0.00065888
0.000660458
0.000662043
0.000663626
0.000665209
0.000666797
0.000668385
0.000669979
0.000671572
0.000673164
0.000674762
0.000676359
0.000677963
0.000679564
0.000681167
0.000682772
0.000684381
0.000685992
0.000687606
0.000689222
0.000690834
0.000692454
0.000694073
0.000695698
0.000697321
0.000698944
0.000700573
0.000702201
0.000703835
0.000705469
0.000707101
0.000708739
0.000710376
0.00071202
0.000713663
0.000715304
0.000716952
0.000718599
0.000720252
0.000721904
0.000723554
0.000725211
0.000726868
0.00072853
0.000730191
0.000731851
0.000733518
0.000735183
0.000736855
0.000738526
0.000740195
0.000741871
0.000743546
0.000745227
0.000746907
0.000748586
0.000750271
0.000751955
0.000753646
0.000755335
0.000757024
0.000758717
0.000760412
0.00076211
0.000763812
0.000765514
0.000767214
0.000768921
0.000770627
0.000772339
0.00077405
0.00077576
0.000777475
0.000779191
0.000780912
0.000782633
0.000784352
0.000786077
0.000787801
0.000789532
0.000791262
0.00079299
0.000794725
0.000796459
0.000798199
0.000799938
0.000801676
0.00080342
0.000805163
0.000806913
0.000808661
0.000810409
0.000812162
0.000813915
0.000815673
0.000817431
0.000819188
0.000820951
0.000822713
0.000824481
0.000826248
0.000828014
0.000829786
0.000831558
0.000833335
0.000835112
0.000836887
0.000838669
0.000840449
0.000842237
0.000844021
0.000845807
0.000847597
0.000849389
0.000851183
0.000852981
0.00085478
0.000856576
0.00085838
0.000860181
0.00086199
0.000863797
0.000865604
0.000867416
0.000869228
0.000871046
0.000872863
0.000874678
0.0008765
0.000878321
0.000880148
0.000881974
0.000883799
0.00088563
0.000887461
0.000889297
0.000891133
0.000892967
0.000894807
0.000896647
0.000898493
0.000900338
0.000902182
0.000904032
0.000905881
0.000907736
0.00090959
0.000911444
0.000913302
0.000915161
0.000917026
0.00091889
0.000920752
0.000922621
0.000924488
0.000926363
0.000928235
0.000930108
0.000931984
0.000933863
0.000935745
0.00093763
0.000939516
0.000941399
0.00094329
0.000945179
0.000947075
0.000948969
0.000950862
0.000952761
0.000954661
0.000956565
0.000958469
0.000960372
0.000962281
0.000964189
0.000966103
0.000968016
0.000969929
0.000971847
0.000973764
0.000975688
0.000977611
0.000979532
0.000981459
0.000983386
0.000985319
0.000987251
0.000989182
0.000991119
0.000993055
0.000994998
0.000996939
0.000998879
0.00100083
0.00100277
0.00100472
0.00100667
0.00100862
0.00101058
0.00101253
0.00101449
0.00101645
0.00101841
0.00102038
0.00102234
0.00102431
0.00102628
0.00102825
0.00103022
0.0010322
0.00103418
0.00103616
0.00103814
0.00104012
0.00104211
0.00104409
0.00104609
0.00104808
0.00105007
0.00105206
0.00105406
0.00105606
0.00105806
0.00106006
0.00106206
0.00106407
0.00106608
0.00106809
0.0010701
0.00107211
0.00107413
0.00107615
0.00107817
0.00108018
0.00108221
0.00108423
0.00108626
0.00108829
0.00109032
0.00109235
0.00109438
0.00109642
0.00109846
0.0011005
0.00110254
0.00110458
0.00110663
0.00110868
0.00111072
0.00111277
0.00111482
0.00111688
0.00111894
0.001121
0.00112306
0.00112512
0.00112718
0.00112925
0.00113132
0.00113339
0.00113546
0.00113753
0.00113961
0.00114169
0.00114377
0.00114585
0.00114793
0.00115002
0.00115211
0.0011542
0.00115629
0.00115838
0.00116048
0.00116257
0.00116467
0.00116677
0.00116887
0.00117098
0.00117309
0.00117519
0.0011773
0.00117941
0.00118153
0.00118365
0.00118576
0.00118788
0.00119
0.00119213
0.00119425
0.00119637
0.0011985
0.00120063
0.00120277
0.0012049
0.00120704
0.00120917
0.00121131
0.00121346
0.0012156
0.00121774
0.00121989
0.00122204
0.0012242
0.00122635
0.0012285
0.00123066
0.00123282
0.00123498
0.00123714
0.00123931
0.00124147
0.00124364
0.00124581
0.00124799
0.00125016
0.00125233
0.00125451
0.00125669
0.00125888
0.00126106
0.00126324
0.00126543
0.00126762
0.00126982
0.00127201
0.0012742
0.0012764
0.0012786
0.0012808
0.001283
0.0012852
0.00128741
0.00128962
0.00129183
0.00129404
0.00129625
0.00129847
0.00130069
0.00130291
0.00130513
0.00130735
0.00130958
0.0013118
0.00131404
0.00131627
0.0013185
0.00132073
0.00132297
0.00132521
0.00132745
0.00132969
0.00133193
0.00133418
0.00133642
0.00133868
0.00134093
0.00134318
0.00134544
0.00134769
0.00134996
0.00135222
0.00135448
0.00135675
0.00135901
0.00136128
0.00136355
0.00136582
0.0013681
0.00137038
0.00137266
0.00137494
0.00137722
0.0013795
0.00138179
0.00138408
0.00138637
0.00138866
0.00139095
0.00139324
0.00139554
0.00139784
0.00140014
0.00140244
0.00140475
0.00140706
0.00140937
0.00141167
0.00141399
0.0014163
0.00141862
0.00142094
0.00142325
0.00142558
0.0014279
0.00143023
0.00143255
0.00143488
0.00143721
0.00143954
0.00144188
0.00144422
0.00144655
0.00144889
0.00145123
0.00145358
0.00145593
0.00145828
0.00146062
0.00146298
0.00146533
0.00146769
0.00147005
0.00147241
0.00147477
0.00147713
0.0014795
0.00148187
0.00148423
0.00148661
0.00148898
0.00149136
0.00149373
0.00149611
0.00149849
0.00150087
0.00150326
0.00150564
0.00150803
0.00151042
0.00151281
0.00151521
0.0015176
0.00152
0.0015224
0.0015248
0.0015272
0.00152961
0.00153201
0.00153442
0.00153683
0.00153925
0.00154166
0.00154407
0.00154649
0.00154891
0.00155134
0.00155376
0.00155618
0.00155861
0.00156104
0.00156347
0.00156591
0.00156834
0.00157078
0.00157322
0.00157566
0.0015781
0.00158055
0.00158299
0.00158544
0.00158789
0.00159035
0.0015928
0.00159526
0.00159772
0.00160017
0.00160264
0.0016051
0.00160757
0.00161003
0.0016125
0.00161498
0.00161745
0.00161992
0.0016224
0.00162488
0.00162736
0.00162984
0.00163233
0.00163481
0.0016373
0.00163979
0.00164229
0.00164478
0.00164727
0.00164977
0.00165227
0.00165477
0.00165727
0.00165978
0.00166229
0.0016648
0.00166731
0.00166982
0.00167233
0.00167485
0.00167737
0.00167989
0.00168241
0.00168493
0.00168746
0.00168999
0.00169252
0.00169505
0.00169758
0.00170012
0.00170266
0.0017052
0.00170774
0.00171028
0.00171283
0.00171537
0.00171793
0.00172048
0.00172303
0.00172558
0.00172814
0.0017307
0.00173326
0.00173582
0.00173838
0.00174095
0.00174352
0.00174609
0.00174866
0.00175123
0.00175381
0.00175639
0.00175896
0.00176154
0.00176413
0.00176671
0.0017693
0.00177189
0.00177448
0.00177707
0.00177966
0.00178226
0.00178486
0.00178745
0.00179006
0.00179266
0.00179527
0.00179787
0.00180048
0.00180309
0.00180571
0.00180832
0.00181094
0.00181356
0.00181618
0.0018188
0.00182143
0.00182406
0.00182668
0.00182931
0.00183195
0.00183458
0.00183722
0.00183986
0.00184249
0.00184514
0.00184778
0.00185043
0.00185307
0.00185572
0.00185837
0.00186102
0.00186368
0.00186634
0.00186899
0.00187166
0.00187432
0.00187698
0.00187965
0.00188232
0.00188499
0.00188766
0.00189033
0.00189301
0.00189568
0.00189836
0.00190104
0.00190373
0.00190641
0.0019091
0.00191179
0.00191448
0.00191717
0.00191987
0.00192256
0.00192526
0.00192796
0.00193066
0.00193336
0.00193607
0.00193878
0.00194149
0.0019442
0.00194691
0.00194963
0.00195234
0.00195506
0.00195778
0.00196051
0.00196324
0.00196596
0.00196869
0.00197142
0.00197416
0.00197689
0.00197962
0.00198236
0.0019851
0.00198785
0.00199059
0.00199333
0.00199608
0.00199883
0.00200158
0.00200434
0.00200709
0.00200985
0.0020126
0.00201537
0.00201813
0.00202089
0.00202366
0.00202643
0.0020292
0.00203197
0.00203474
0.00203752
0.0020403
0.00204308
0.00204586
0.00204864
0.00205143
0.00205421
0.002057
0.00205979
0.00206258
0.00206538
0.00206818
0.00207097
0.00207378
0.00207658
0.00207938
0.00208219
0.002085
0.00208781
0.00209062
0.00209343
0.00209625
0.00209907
0.00210189
0.00210471
0.00210753
0.00211036
0.00211318
0.00211602
0.00211885
0.00212168
0.00212451
0.00212735
0.00213019
0.00213303
0.00213587
0.00213871
0.00214156
0.00214441
0.00214726
0.00215011
0.00215296
0.00215582
0.00215868
0.00216154
0.00216439
0.00216726
0.00217012
0.00217299
0.00217586
0.00217873
0.0021816
0.00218447
0.00218735
0.00219023
0.00219311
0.00219599
0.00219887
0.00220176
0.00220465
0.00220753
0.00221042
0.00221332
0.00221621
0.00221911
0.00222201
0.00222491
0.00222781
0.00223072
0.00223363
0.00223654
0.00223944
0.00224236
0.00224527
0.00224819
0.00225111
0.00225402
0.00225695
0.00225987
0.0022628
0.00226572
0.00226865
0.00227158
0.00227452
0.00227745
0.00228039
0.00228333
0.00228627
0.00228921
0.00229216
0.0022951
0.00229805
0.002301
0.00230395
0.0023069
0.00230986
0.00231281
0.00231577
0.00231873
0.0023217
0.00232467
0.00232763
0.0023306
0.00233357
0.00233654
0.00233952
0.00234249
0.00234547
0.00234845
0.00235143
0.00235442
0.0023574
0.00236039
0.00236338
0.00236637
0.00236936
0.00237236
0.00237535
0.00237836
0.00238136
0.00238436
0.00238737
0.00239037
0.00239338
0.00239639
0.00239941
0.00240242
0.00240543
0.00240845
0.00241147
0.0024145
0.00241752
0.00242054
0.00242357
0.0024266
0.00242964
0.00243267
0.0024357
0.00243874
0.00244178
0.00244482
0.00244786
0.0024509
0.00245395
0.002457
0.00246005
0.0024631
0.00246615
0.00246921
0.00247227
0.00247533
0.00247839
0.00248145
0.00248452
0.00248758
0.00249066
0.00249372
0.0024968
0.00249987
0.00250295
0.00250603
0.00250911
0.00251219
0.00251527
0.00251836
0.00252145
0.00252454
0.00252763
0.00253073
0.00253382
0.00253692
0.00254002
0.00254312
0.00254622
0.00254933
0.00255244
0.00255555
0.00255866
0.00256177
0.00256488
0.002568
0.00257112
0.00257424
0.00257736
0.00258049
0.00258361
0.00258674
0.00258987
0.002593
0.00259613
0.00259927
0.00260241
0.00260555
0.00260869
0.00261183
0.00261497
0.00261812
0.00262127
0.00262442
0.00262757
0.00263072
0.00263388
0.00263704
0.0026402
0.00264336
0.00264652
0.00264969
0.00265286
0.00265602
0.00265919
0.00266237
0.00266554
0.00266872
0.0026719
0.00267508
0.00267826
0.00268145
0.00268464
0.00268783
0.00269101
0.00269421
0.0026974
0.0027006
0.0027038
0.00270699
0.0027102
0.0027134
0.00271661
0.00271982
0.00272302
0.00272623
0.00272945
0.00273266
0.00273588
0.0027391
0.00274232
0.00274554
0.00274877
0.00275199
0.00275522
0.00275845
0.00276168
0.00276492
0.00276815
0.00277139
0.00277463
0.00277787
0.00278111
0.00278436
0.0027876
0.00279085
0.0027941
0.00279736
0.00280061
0.00280386
0.00280712
0.00281038
0.00281364
0.00281691
0.00282018
0.00282344
0.00282671
0.00282998
0.00283326
0.00283654
0.00283981
0.00284309
0.00284637
0.00284966
0.00285294
0.00285623
0.00285952
0.00286281
0.0028661
0.0028694
0.00287269
0.00287599
0.00287929
0.00288259
0.0028859
0.0028892
0.00289251
0.00289582
0.00289913
0.00290244
0.00290576
0.00290907
0.00291239
0.00291572
0.00291904
0.00292236
0.00292569
0.00292901
0.00293235
0.00293568
0.00293901
0.00294235
0.00294568
0.00294903
0.00295237
0.00295571
0.00295905
0.0029624
0.00296575
0.0029691
0.00297245
0.00297581
0.00297916
0.00298252
0.00298588
0.00298925
0.00299261
0.00299598
0.00299934
0.00300272
0.00300609
0.00300946
0.00301284
0.00301621
0.0030196
0.00302298
0.00302636
0.00302975
0.00303313
0.00303652
0.00303991
0.0030433
0.0030467
0.0030501
0.0030535
0.0030569
0.0030603
0.0030637
0.00306711
0.00307052
0.00307393
0.00307734
0.00308075
0.00308416
0.00308758
0.003091
0.00309442
0.00309784
0.00310127
0.0031047
0.00310813
0.00311155
0.00311499
0.00311842
0.00312186
0.0031253
0.00312873
0.00313217
0.00313562
0.00313906
0.00314251
0.00314597
0.00314941
0.00315287
0.00315632
0.00315978
0.00316324
0.0031667
0.00317016
0.00317363
0.0031771
0.00318057
0.00318403
0.00318751
0.00319098
0.00319446
0.00319794
0.00320142
0.0032049
0.00320838
0.00321187
0.00321536
0.00321884
0.00322234
0.00322583
0.00322932
0.00323282
0.00323632
0.00323982
0.00324332
0.00324683
0.00325033
0.00325384
0.00325735
0.00326086
0.00326438
0.00326789
0.00327141
0.00327493
0.00327845
0.00328197
0.0032855
0.00328902
0.00329255
0.00329608
0.00329962
0.00330315
0.00330668
0.00331022
0.00331376
0.0033173
0.00332085
0.0033244
0.00332794
0.00333149
0.00333504
0.0033386
0.00334216
0.00334571
0.00334927
0.00335283
0.0033564
0.00335996
0.00336353
0.0033671
0.00337067
0.00337424
0.00337782
0.00338139
0.00338497
0.00338855
0.00339213
0.00339572
0.0033993
0.00340289
0.00340648
0.00341007
0.00341366
0.00341726
0.00342086
0.00342445
0.00342806
0.00343166
0.00343526
0.00343887
0.00344247
0.00344609
0.0034497
0.00345331
0.00345693
0.00346054
0.00346417
0.00346779
0.00347141
0.00347503
0.00347866
0.00348229
0.00348592
0.00348956
0.00349319
0.00349683
0.00350047
0.00350411
0.00350775
0.00351139
0.00351504
0.00351869
0.00352234
0.003526
0.00352965
0.0035333
0.00353696
0.00354062
0.00354428
0.00354794
0.00355161
0.00355528
0.00355895
0.00356262
0.00356629
0.00356997
0.00357364
0.00357732
0.003581
0.00358468
0.00358837
0.00359205
0.00359574
0.00359943
0.00360312
0.00360682
0.00361051
0.00361421
0.00361791
0.00362161
0.00362531
0.00362901
0.00363272
0.00363643
0.00364014
0.00364385
0.00364756
0.00365128
0.003655
0.00365872
0.00366244
0.00366616
0.00366989
0.00367362
0.00367735
0.00368108
0.00368481
0.00368855
0.00369229
0.00369603
0.00369977
0.00370351
0.00370725
0.003711
0.00371475
0.0037185
0.00372225
0.00372601
0.00372977
0.00373352
0.00373728
0.00374104
0.00374481
0.00374857
0.00375234
0.00375611
0.00375988
0.00376365
0.00376743
0.00377121
0.00377498
0.00377876
0.00378255
0.00378633
0.00379012
0.0037939
0.00379769
0.00380149
0.00380528
0.00380908
0.00381287
0.00381667
0.00382047
0.00382428
0.00382808
0.00383189
0.0038357
0.00383951
0.00384332
0.00384714
0.00385095
0.00385477
0.00385859
0.00386241
0.00386624
0.00387007
0.00387389
0.00387772
0.00388155
0.00388539
0.00388923
0.00389306
0.0038969
0.00390074
0.00390459
0.00390843
0.00391228
0.00391613
0.00391998
0.00392383
0.00392769
0.00393154
0.0039354
0.00393926
0.00394312
0.00394699
0.00395085
0.00395472
0.00395859
0.00396246
0.00396633
0.00397021
0.00397409
0.00397796
0.00398185
0.00398573
0.00398961
0.0039935
0.00399738
0.00400128
0.00400517
0.00400906
0.00401296
0.00401685
0.00402076
0.00402466
0.00402856
0.00403246
0.00403637
0.00404028
0.00404419
0.00404811
0.00405202
0.00405594
0.00405986
0.00406378
0.0040677
0.00407162
0.00407555
0.00407948
0.00408341
0.00408735
0.00409128
0.00409521
0.00409915
0.00410309
0.00410703
0.00411097
0.00411492
0.00411887
0.00412282
0.00412677
0.00413072
0.00413468
0.00413863
0.00414259
0.00414655
0.00415051
0.00415448
0.00415844
0.00416241
0.00416638
0.00417035
0.00417433
0.0041783
0.00418228
0.00418626
0.00419024
0.00419422
0.0041982
0.00420219
0.00420618
0.00421017
0.00421416
0.00421816
0.00422215
0.00422615
0.00423015
0.00423415
0.00423816
0.00424216
0.00424618
0.00425019
0.00425419
0.00425821
0.00426222
0.00426624
0.00427026
0.00427428
0.00427831
0.00428233
0.00428636
0.00429039
0.00429441
0.00429845
0.00430248
0.00430652
0.00431056
0.0043146
0.00431864
0.00432268
0.00432673
0.00433078
0.00433482
0.00433888
0.00434293
0.00434698
0.00435104
0.0043551
0.00435916
0.00436322
0.00436729
0.00437135
0.00437542
0.00437949
0.00438356
0.00438764
0.00439171
0.00439579
0.00439987
0.00440395
0.00440803
0.00441212
0.0044162
0.00442029
0.00442438
0.00442847
0.00443257
0.00443667
0.00444076
0.00444487
0.00444897
0.00445308
0.00445718
0.00446129
0.0044654
0.00446951
0.00447363
0.00447774
0.00448186
0.00448598
0.0044901
0.00449422
0.00449835
0.00450247
0.0045066
0.00451073
0.00451487
0.004519
0.00452314
0.00452727
0.00453141
0.00453556
0.0045397
0.00454385
0.00454799
0.00455214
0.0045563
0.00456045
0.0045646
0.00456876
0.00457292
0.00457708
0.00458124
0.0045854
0.00458957
0.00459374
0.00459791
0.00460208
0.00460626
0.00461043
0.00461461
0.00461879
0.00462297
0.00462716
0.00463134
0.00463553
0.00463972
0.00464391
0.00464811
0.0046523
0.0046565
0.0046607
0.0046649
0.0046691
0.0046733
0.00467751
0.00468172
0.00468593
0.00469014
0.00469436
0.00469857
0.00470279
0.00470701
0.00471123
0.00471545
0.00471968
0.00472391
0.00472814
0.00473237
0.0047366
0.00474084
0.00474507
0.00474931
0.00475355
0.00475779
0.00476204
0.00476628
0.00477053
0.00477478
0.00477903
0.00478328
0.00478754
0.0047918
0.00479606
0.00480032
0.00480458
0.00480884
0.00481311
0.00481738
0.00482165
0.00482592
0.0048302
0.00483447
0.00483875
0.00484303
0.00484731
0.0048516
0.00485588
0.00486017
0.00486446
0.00486875
0.00487305
0.00487734
0.00488164
0.00488594
0.00489024
0.00489454
0.00489885
0.00490316
0.00490747
0.00491177
0.00491609
0.0049204
0.00492472
0.00492904
0.00493335
0.00493768
0.004942
0.00494633
0.00495066
0.00495498
0.00495931
0.00496365
0.00496798
0.00497232
0.00497666
0.004981
0.00498534
0.00498969
0.00499403
0.00499838
0.00500273
0.00500708
0.00501144
0.00501579
0.00502015
0.00502451
0.00502887
0.00503323
0.0050376
0.00504197
0.00504633
0.00505071
0.00505508
0.00505946
0.00506383
0.00506821
0.00507259
0.00507697
0.00508136
0.00508575
0.00509013
0.00509452
0.00509891
0.00510331
0.00510771
0.0051121
0.0051165
0.0051209
0.00512531
0.00512971
0.00513412
0.00513853
0.00514294
0.00514735
0.00515177
0.00515618
0.0051606
0.00516502
0.00516944
0.00517387
0.00517829
0.00518272
0.00518715
0.00519158
0.00519601
0.00520045
0.00520488
0.00520932
0.00521377
0.00521821
0.00522265
0.0052271
0.00523154
0.005236
0.00524045
0.0052449
0.00524936
0.00525381
0.00525827
0.00526274
0.0052672
0.00527167
0.00527614
0.0052806
0.00528508
0.00528955
0.00529402
0.0052985
0.00530298
0.00530746
0.00531195
0.00531643
0.00532092
0.0053254
0.0053299
0.00533439
0.00533888
0.00534338
0.00534787
0.00535238
0.00535688
0.00536138
0.00536588
0.00537039
0.0053749
0.00537941
0.00538392
0.00538844
0.00539295
0.00539748
0.005402
0.00540652
0.00541104
0.00541557
0.0054201
0.00542463
0.00542915
0.00543369
0.00543822
0.00544276
0.0054473
0.00545184
0.00545638
0.00546093
0.00546548
0.00547003
0.00547458
0.00547913
0.00548369
0.00548824
0.0054928
0.00549736
0.00550192
0.00550649
0.00551105
0.00551562
0.00552019
0.00552476
0.00552934
0.00553391
0.00553849
0.00554307
0.00554765
0.00555223
0.00555682
0.00556141
0.005566
0.00557058
0.00557518
0.00557977
0.00558437
0.00558897
0.00559356
0.00559817
0.00560277
0.00560738
0.00561199
0.00561659
0.0056212
0.00562582
0.00563043
0.00563505
0.00563967
0.00564429
0.00564891
0.00565354
0.00565816
0.00566279
0.00566742
0.00567205
0.00567669
0.00568132
0.00568596
0.00569059
0.00569524
0.00569988
0.00570453
0.00570918
0.00571382
0.00571847
0.00572313
0.00572779
0.00573244
0.0057371
0.00574176
0.00574642
0.00575109
0.00575576
0.00576042
0.00576509
0.00576976
0.00577444
0.00577911
0.00578379
0.00578847
0.00579315
0.00579784
0.00580252
0.00580721
0.0058119
0.00581659
0.00582128
0.00582598
0.00583067
0.00583537
0.00584007
0.00584477
0.00584948
0.00585418
0.00585889
0.0058636
0.00586831
0.00587302
0.00587773
0.00588245
0.00588717
0.00589189
0.00589662
0.00590134
0.00590606
0.00591079
0.00591552
0.00592026
0.005925
0.00592973
0.00593447
0.00593921
0.00594395
0.0059487
0.00595344
0.00595819
0.00596294
0.00596769
0.00597244
0.0059772
0.00598196
0.00598671
0.00599148
0.00599624
0.006001
0.00600577
0.00601054
0.00601531
0.00602008
0.00602485
0.00602963
0.00603441
0.00603919
0.00604397
0.00604875
0.00605354
0.00605832
0.00606312
0.00606791
0.0060727
0.00607749
0.00608229
0.00608709
0.00609189
0.00609669
0.00610149
0.0061063
0.00611111
0.00611592
0.00612073
0.00612554
0.00613036
0.00613518
0.00614
0.00614482
0.00614964
0.00615447
0.00615929
0.00616413
0.00616896
0.00617379
0.00617862
0.00618346
0.0061883
0.00619314
0.00619798
0.00620283
0.00620767
0.00621252
0.00621737
0.00622222
0.00622708
0.00623193
0.00623679
0.00624165
0.00624651
0.00625137
0.00625624
0.00626111
0.00626597
0.00627084
0.00627571
0.00628059
0.00628547
0.00629035
0.00629522