/*--------------------------------*- C++ -*----------------------------------*\
| =========                 |                                                 |
| \\      /  F ield         | OpenFOAM: The Open Source CFD Toolbox           |
|  \\    /   O peration     | Version:  2206                                  |
|   \\  /    A nd           | Website:  www.openfoam.com                      |
|    \\/     M anipulation  |                                                 |
\*---------------------------------------------------------------------------*/
FoamFile
{
    version     2.0;
    format      ascii;
    arch        "LSB;label=32;scalar=64";
    class       volVectorField;
    location    "480";
    object      U;
}
// * * * * * * * * * * * * * * * * * * * * * * * * * * * * * * * * * * * * * //

dimensions      [0 1 -1 0 0 0 0];

internalField   nonuniform List<vector> 
100000
(
(-4.04025e-12 6.47599e-06 1.38497e-12)
(-3.77747e-12 1.2089e-05 8.90451e-14)
(-7.69493e-12 2.20368e-05 1.51901e-13)
(-1.43682e-11 3.27189e-05 1.51727e-13)
(-1.78741e-11 4.24033e-05 8.80162e-14)
(-1.68436e-11 4.48936e-05 7.51941e-14)
(-2.0585e-11 5.48004e-05 1.41961e-13)
(-2.62807e-11 6.56243e-05 1.47989e-13)
(-3.12497e-11 7.64299e-05 1.49626e-13)
(-3.5847e-11 8.62007e-05 8.42563e-14)
(-3.39338e-11 8.86252e-05 7.84224e-14)
(-3.83659e-11 9.85055e-05 1.43084e-13)
(-4.35994e-11 0.000109333 1.48703e-13)
(-4.8827e-11 0.000120148 1.4789e-13)
(-5.33123e-11 0.000129943 8.35269e-14)
(-5.13451e-11 0.000132355 7.8858e-14)
(-5.59807e-11 0.000142223 1.44397e-13)
(-6.0854e-11 0.000153051 1.48209e-13)
(-6.66098e-11 0.000163869 1.47833e-13)
(-7.03776e-11 0.000173675 8.23793e-14)
(-6.93242e-11 0.000176083 7.99981e-14)
(-7.28165e-11 0.000185944 1.44116e-13)
(-7.9102e-11 0.00019678 1.49804e-13)
(-8.32271e-11 0.000207694 1.51417e-13)
(-8.9539e-11 0.000218521 1.48087e-13)
(-9.30581e-11 0.000228335 8.3639e-14)
(-9.19373e-11 0.000230741 8.02759e-14)
(-9.57197e-11 0.000240596 1.46523e-13)
(-1.01465e-10 0.000251424 1.49527e-13)
(-1.06363e-10 0.000262245 1.48394e-13)
(-1.11044e-10 0.000272062 8.26388e-14)
(-1.08967e-10 0.000274467 8.08858e-14)
(-1.13547e-10 0.000284319 1.46038e-13)
(-1.1863e-10 0.000295146 1.49704e-13)
(-1.24071e-10 0.000305968 1.47766e-13)
(-1.28298e-10 0.000315788 8.26474e-14)
(-1.26602e-10 0.000318192 8.07265e-14)
(-1.3087e-10 0.000328042 1.46184e-13)
(-1.36209e-10 0.000338869 1.49417e-13)
(-1.41436e-10 0.000349692 1.47645e-13)
(-1.45837e-10 0.000359514 8.2364e-14)
(-1.44001e-10 0.000361918 8.08481e-14)
(-1.48386e-10 0.000371766 1.46092e-13)
(-1.53629e-10 0.000382593 1.49366e-13)
(-1.5893e-10 0.000393415 1.47408e-13)
(-1.6327e-10 0.000403239 8.22643e-14)
(-1.61485e-10 0.000405643 8.084e-14)
(-1.65834e-10 0.00041549 1.46109e-13)
(-1.71101e-10 0.000426316 1.49248e-13)
(-1.76386e-10 0.000437139 1.47288e-13)
(-1.8073e-10 0.000446964 8.21216e-14)
(-1.78952e-10 0.000449367 8.08924e-14)
(-1.83287e-10 0.000459213 1.46065e-13)
(-1.88578e-10 0.00047004 1.49208e-13)
(-1.93827e-10 0.000480863 1.47132e-13)
(-1.98217e-10 0.000490689 8.2067e-14)
(-1.96381e-10 0.000493092 8.08674e-14)
(-2.0079e-10 0.000502937 1.46106e-13)
(-2.05989e-10 0.000513763 1.49088e-13)
(-2.11349e-10 0.000524587 1.47102e-13)
(-2.15602e-10 0.000534413 8.19038e-14)
(-2.13934e-10 0.000536817 8.0985e-14)
(-2.18143e-10 0.000546661 1.45976e-13)
(-2.23581e-10 0.000557487 1.49182e-13)
(-2.28653e-10 0.000568311 1.46845e-13)
(-2.33251e-10 0.000578138 8.20429e-14)
(-2.3117e-10 0.000580541 8.07533e-14)
(-2.35875e-10 0.000590385 1.46261e-13)
(-2.40719e-10 0.000601211 1.48787e-13)
(-2.46501e-10 0.000612035 1.47194e-13)
(-2.50247e-10 0.000621862 8.14811e-14)
(-2.49188e-10 0.000624266 8.13751e-14)
(-2.52672e-10 0.000634109 1.45566e-13)
(-2.58982e-10 0.000644943 1.50324e-13)
(-2.63091e-10 0.000655858 1.50833e-13)
(-2.69407e-10 0.000666689 1.46787e-13)
(-2.72904e-10 0.000676518 8.25091e-14)
(-2.71817e-10 0.000678921 8.08337e-14)
(-2.75578e-10 0.000688764 1.46817e-13)
(-2.81343e-10 0.00069959 1.49169e-13)
(-2.86213e-10 0.000710414 1.47435e-13)
(-2.90908e-10 0.000720242 8.18099e-14)
(-2.88825e-10 0.000722646 8.13554e-14)
(-2.93416e-10 0.000732488 1.46345e-13)
(-2.9849e-10 0.000743314 1.49478e-13)
(-3.03934e-10 0.000754138 1.47058e-13)
(-3.0815e-10 0.000763967 8.20089e-14)
(-3.06469e-10 0.00076637 8.11419e-14)
(-3.10725e-10 0.000776212 1.46487e-13)
(-3.16078e-10 0.000787038 1.49287e-13)
(-3.21287e-10 0.000797862 1.47108e-13)
(-3.257e-10 0.000807691 8.18679e-14)
(-3.23853e-10 0.000810094 8.12135e-14)
(-3.28253e-10 0.000819936 1.46399e-13)
(-3.33481e-10 0.000830762 1.49292e-13)
(-3.38798e-10 0.000841586 1.47013e-13)
(-3.43114e-10 0.000851416 8.18531e-14)
(-3.41357e-10 0.000853819 8.11918e-14)
(-3.45673e-10 0.00086366 1.46384e-13)
(-3.50983e-10 0.000874486 1.49253e-13)
(-3.56217e-10 0.00088531 1.4695e-13)
(-3.60618e-10 0.00089514 8.18337e-14)
(-3.58771e-10 0.000897543 8.11604e-14)
(-3.63187e-10 0.000907384 1.464e-13)
(-3.68383e-10 0.00091821 1.49168e-13)
(-3.73746e-10 0.000929034 1.46964e-13)
(-3.77997e-10 0.000938864 8.17231e-14)
(-3.76327e-10 0.000941267 8.1251e-14)
(-3.80536e-10 0.000951108 1.46265e-13)
(-3.85977e-10 0.000961934 1.49276e-13)
(-3.91048e-10 0.000972758 1.46751e-13)
(-3.95646e-10 0.000982589 8.18961e-14)
(-3.93563e-10 0.000984992 8.10025e-14)
(-3.98266e-10 0.000994832 1.46542e-13)
(-4.03116e-10 0.00100566 1.48893e-13)
(-4.08895e-10 0.00101648 1.47136e-13)
(-4.12644e-10 0.00102631 8.1359e-14)
(-4.11578e-10 0.00102872 8.16146e-14)
(-4.15064e-10 0.00103856 1.45829e-13)
(-4.21376e-10 0.00104939 1.50444e-13)
(-4.25485e-10 0.0010603 1.50759e-13)
(-4.318e-10 0.00107114 1.46581e-13)
(-4.35295e-10 0.00108097 8.23139e-14)
(-4.34211e-10 0.00108337 8.09588e-14)
(-4.37971e-10 0.00109321 1.46903e-13)
(-4.43738e-10 0.00110404 1.49124e-13)
(-4.48604e-10 0.00111486 1.47261e-13)
(-4.533e-10 0.00112469 8.16476e-14)
(-4.51218e-10 0.0011271 8.14756e-14)
(-4.55809e-10 0.00113694 1.46441e-13)
(-4.60885e-10 0.00114776 1.49454e-13)
(-4.66325e-10 0.00115859 1.46916e-13)
(-4.70543e-10 0.00116842 8.18726e-14)
(-4.68859e-10 0.00117082 8.12567e-14)
(-4.7312e-10 0.00118066 1.46593e-13)
(-4.78469e-10 0.00119148 1.49276e-13)
(-4.83683e-10 0.00120231 1.47e-13)
(-4.88088e-10 0.00121214 8.17446e-14)
(-4.86251e-10 0.00121454 8.1335e-14)
(-4.90638e-10 0.00122438 1.46499e-13)
(-4.95883e-10 0.00123521 1.49309e-13)
(-5.0118e-10 0.00124603 1.46911e-13)
(-5.05518e-10 0.00125587 8.17663e-14)
(-5.03734e-10 0.00125827 8.12879e-14)
(-5.08082e-10 0.00126811 1.46515e-13)
(-5.13355e-10 0.00127893 1.49249e-13)
(-5.18634e-10 0.00128976 1.46908e-13)
(-5.2298e-10 0.00129959 8.17147e-14)
(-5.21199e-10 0.00130199 8.13107e-14)
(-5.25535e-10 0.00131183 1.46466e-13)
(-5.30829e-10 0.00132266 1.49256e-13)
(-5.36076e-10 0.00133348 1.46841e-13)
(-5.40465e-10 0.00134331 8.1734e-14)
(-5.38628e-10 0.00134572 8.12587e-14)
(-5.43035e-10 0.00135556 1.46502e-13)
(-5.4824e-10 0.00136638 1.49171e-13)
(-5.53596e-10 0.00137721 1.46885e-13)
(-5.57852e-10 0.00138704 8.16287e-14)
(-5.56177e-10 0.00138944 8.13549e-14)
(-5.6039e-10 0.00139928 1.46364e-13)
(-5.65829e-10 0.00141011 1.49294e-13)
(-5.70902e-10 0.00142093 1.46683e-13)
(-5.75497e-10 0.00143076 8.18184e-14)
(-5.73416e-10 0.00143316 8.11005e-14)
(-5.78117e-10 0.001443 1.46646e-13)
(-5.8297e-10 0.00145383 1.48915e-13)
(-5.88746e-10 0.00146465 1.47086e-13)
(-5.92497e-10 0.00147449 8.12882e-14)
(-5.91428e-10 0.00147689 8.17152e-14)
(-5.94917e-10 0.00148673 1.4593e-13)
(-6.01228e-10 0.00149756 1.50478e-13)
(-6.05338e-10 0.00150848 1.50698e-13)
(-6.11651e-10 0.00151931 1.46459e-13)
(-6.15145e-10 0.00152914 8.2205e-14)
(-6.14065e-10 0.00153154 8.10088e-14)
(-6.17822e-10 0.00154138 1.46923e-13)
(-6.23591e-10 0.00155221 1.4908e-13)
(-6.28455e-10 0.00156303 1.4715e-13)
(-6.33153e-10 0.00157287 8.15546e-14)
(-6.3107e-10 0.00157527 8.15229e-14)
(-6.35663e-10 0.00158511 1.4647e-13)
(-6.40735e-10 0.00159593 1.49417e-13)
(-6.46179e-10 0.00160676 1.46823e-13)
(-6.50392e-10 0.00161659 8.17861e-14)
(-6.48714e-10 0.00161899 8.13092e-14)
(-6.52969e-10 0.00162883 1.46623e-13)
(-6.58325e-10 0.00163966 1.49254e-13)
(-6.6353e-10 0.00165048 1.46913e-13)
(-6.67944e-10 0.00166031 8.16749e-14)
(-6.66097e-10 0.00166272 8.13791e-14)
(-6.70497e-10 0.00167256 1.46545e-13)
(-6.75727e-10 0.00168338 1.49282e-13)
(-6.81042e-10 0.00169421 1.46852e-13)
(-6.85358e-10 0.00170404 8.16859e-14)
(-6.83601e-10 0.00170644 8.13554e-14)
(-6.87916e-10 0.00171628 1.46538e-13)
(-6.93228e-10 0.0017271 1.49263e-13)
(-6.98461e-10 0.00173793 1.4682e-13)
(-7.02862e-10 0.00174776 8.16888e-14)
(-7.01014e-10 0.00175017 8.1322e-14)
(-7.0543e-10 0.00176 1.4656e-13)
(-7.10629e-10 0.00177083 1.49195e-13)
(-7.1599e-10 0.00178165 1.4686e-13)
(-7.20242e-10 0.00179149 8.15977e-14)
(-7.18569e-10 0.00179389 8.14107e-14)
(-7.22779e-10 0.00180373 1.4643e-13)
(-7.28221e-10 0.00181455 1.49317e-13)
(-7.33293e-10 0.00182538 1.4667e-13)
(-7.37889e-10 0.00183521 8.17889e-14)
(-7.35806e-10 0.00183761 8.11588e-14)
(-7.40508e-10 0.00184745 1.46713e-13)
(-7.45361e-10 0.00185828 1.48945e-13)
(-7.51137e-10 0.0018691 1.47077e-13)
(-7.54889e-10 0.00187894 8.12634e-14)
(-7.53819e-10 0.00188134 8.17734e-14)
(-7.57307e-10 0.00189118 1.45997e-13)
(-7.63619e-10 0.00190201 1.50511e-13)
(-7.67729e-10 0.00191292 1.50685e-13)
(-7.74042e-10 0.00192376 1.46413e-13)
(-7.77536e-10 0.00193359 8.21602e-14)
(-7.76456e-10 0.00193599 8.10422e-14)
(-7.80213e-10 0.00194583 1.46949e-13)
(-7.85983e-10 0.00195666 1.49072e-13)
(-7.90846e-10 0.00196748 1.4711e-13)
(-7.95543e-10 0.00197731 8.15144e-14)
(-7.93461e-10 0.00197972 8.15578e-14)
(-7.98053e-10 0.00198956 1.46499e-13)
(-8.03128e-10 0.00200038 1.49417e-13)
(-8.08568e-10 0.00201121 1.46788e-13)
(-8.12785e-10 0.00202104 8.17531e-14)
(-8.11103e-10 0.00202344 8.13413e-14)
(-8.15363e-10 0.00203328 1.46659e-13)
(-8.20713e-10 0.0020441 1.49253e-13)
(-8.25925e-10 0.00205493 1.4689e-13)
(-8.30331e-10 0.00206476 8.16383e-14)
(-8.28493e-10 0.00206717 8.14209e-14)
(-8.32881e-10 0.002077 1.46573e-13)
(-8.38126e-10 0.00208783 1.49298e-13)
(-8.43423e-10 0.00209865 1.46818e-13)
(-8.47761e-10 0.00210849 8.16719e-14)
(-8.45977e-10 0.00211089 8.1375e-14)
(-8.50324e-10 0.00212073 1.46595e-13)
(-8.55599e-10 0.00213155 1.49249e-13)
(-8.60877e-10 0.00214238 1.46831e-13)
(-8.65223e-10 0.00215221 8.1631e-14)
(-8.63441e-10 0.00215461 8.13986e-14)
(-8.67777e-10 0.00216445 1.46551e-13)
(-8.73072e-10 0.00217528 1.49266e-13)
(-8.78318e-10 0.0021861 1.46777e-13)
(-8.82707e-10 0.00219594 8.166e-14)
(-8.8087e-10 0.00219834 8.13474e-14)
(-8.85277e-10 0.00220818 1.46592e-13)
(-8.90484e-10 0.002219 1.4919e-13)
(-8.95838e-10 0.00222983 1.46833e-13)
(-9.00095e-10 0.00223966 8.15635e-14)
(-8.98418e-10 0.00224206 8.14441e-14)
(-9.02632e-10 0.0022519 1.46458e-13)
(-9.08071e-10 0.00226273 1.49321e-13)
(-9.13145e-10 0.00227355 1.46643e-13)
(-9.17739e-10 0.00228338 8.17617e-14)
(-9.15658e-10 0.00228579 8.11895e-14)
(-9.20358e-10 0.00229562 1.46746e-13)
(-9.25213e-10 0.00230645 1.48949e-13)
(-9.30988e-10 0.00231727 1.47057e-13)
(-9.34741e-10 0.00232711 8.12369e-14)
(-9.33669e-10 0.00232951 8.18069e-14)
(-9.37159e-10 0.00233935 1.46029e-13)
(-9.4347e-10 0.00235018 1.5052e-13)
(-9.4758e-10 0.0023611 1.50661e-13)
(-9.53893e-10 0.00237193 1.46366e-13)
(-9.57386e-10 0.00238176 8.21193e-14)
(-9.56308e-10 0.00238417 8.10588e-14)
(-9.60064e-10 0.002394 1.46953e-13)
(-9.65835e-10 0.00240483 1.49054e-13)
(-9.70696e-10 0.00241565 1.47066e-13)
(-9.75395e-10 0.00242549 8.14791e-14)
(-9.73312e-10 0.00242789 8.1573e-14)
(-9.77905e-10 0.00243773 1.46507e-13)
(-9.82978e-10 0.00244855 1.49399e-13)
(-9.88421e-10 0.00245938 1.46751e-13)
(-9.92634e-10 0.00246921 8.17176e-14)
(-9.90957e-10 0.00247161 8.13613e-14)
(-9.95211e-10 0.00248145 1.46666e-13)
(-1.00057e-09 0.00249228 1.49244e-13)
(-1.00577e-09 0.0025031 1.46851e-13)
(-1.01019e-09 0.00251294 8.16131e-14)
(-1.00834e-09 0.00251534 8.14327e-14)
(-1.01274e-09 0.00252518 1.46592e-13)
(-1.01797e-09 0.002536 1.49279e-13)
(-1.02328e-09 0.00254683 1.46799e-13)
(-1.0276e-09 0.00255666 8.16305e-14)
(-1.02584e-09 0.00255906 8.14101e-14)
(-1.03016e-09 0.0025689 1.4659e-13)
(-1.03547e-09 0.00257973 1.49266e-13)
(-1.0407e-09 0.00259055 1.46776e-13)
(-1.0451e-09 0.00260038 8.1639e-14)
(-1.04326e-09 0.00260279 8.1378e-14)
(-1.04767e-09 0.00261262 1.46616e-13)
(-1.05287e-09 0.00262345 1.49204e-13)
(-1.05823e-09 0.00263427 1.46824e-13)
(-1.06248e-09 0.00264411 8.15534e-14)
(-1.06081e-09 0.00264651 8.14677e-14)
(-1.06502e-09 0.00265635 1.4649e-13)
(-1.07046e-09 0.00266717 1.49332e-13)
(-1.07554e-09 0.002678 1.4664e-13)
(-1.08013e-09 0.00268783 8.17497e-14)
(-1.07805e-09 0.00269023 8.12163e-14)
(-1.08275e-09 0.00270007 1.46776e-13)
(-1.0876e-09 0.0027109 1.48964e-13)
(-1.09338e-09 0.00272172 1.47055e-13)
(-1.09713e-09 0.00273156 8.12277e-14)
(-1.09606e-09 0.00273396 8.18334e-14)
(-1.09955e-09 0.0027438 1.46061e-13)
(-1.10586e-09 0.00275463 1.50537e-13)
(-1.10997e-09 0.00276554 1.50657e-13)
(-1.11628e-09 0.00277638 1.46348e-13)
(-1.11978e-09 0.00278621 8.21008e-14)
(-1.1187e-09 0.00278861 8.10746e-14)
(-1.12246e-09 0.00279845 1.46967e-13)
(-1.12823e-09 0.00280928 1.49052e-13)
(-1.13309e-09 0.0028201 1.47051e-13)
(-1.13778e-09 0.00282994 8.14616e-14)
(-1.1357e-09 0.00283234 8.15906e-14)
(-1.14029e-09 0.00284218 1.46522e-13)
(-1.14537e-09 0.002853 1.49401e-13)
(-1.15081e-09 0.00286383 1.46736e-13)
(-1.15503e-09 0.00287366 8.17047e-14)
(-1.15335e-09 0.00287606 8.13757e-14)
(-1.1576e-09 0.0028859 1.46686e-13)
(-1.16296e-09 0.00289673 1.49243e-13)
(-1.16817e-09 0.00290755 1.46845e-13)
(-1.17257e-09 0.00291738 8.15942e-14)
(-1.17074e-09 0.00291979 8.14568e-14)
(-1.17512e-09 0.00292962 1.46603e-13)
(-1.18037e-09 0.00294045 1.49293e-13)
(-1.18566e-09 0.00295127 1.46779e-13)
(-1.19e-09 0.00296111 8.1632e-14)
(-1.18822e-09 0.00296351 8.1412e-14)
(-1.19257e-09 0.00297335 1.46629e-13)
(-1.19784e-09 0.00298417 1.49249e-13)
(-1.20312e-09 0.002995 1.46797e-13)
(-1.20746e-09 0.00300483 8.15948e-14)
(-1.20568e-09 0.00300724 8.14368e-14)
(-1.21002e-09 0.00301707 1.46588e-13)
(-1.21531e-09 0.0030279 1.4927e-13)
(-1.22056e-09 0.00303872 1.46749e-13)
(-1.22495e-09 0.00304856 8.16275e-14)
(-1.22311e-09 0.00305096 8.13865e-14)
(-1.22752e-09 0.0030608 1.46632e-13)
(-1.23273e-09 0.00307162 1.49198e-13)
(-1.23808e-09 0.00308245 1.4681e-13)
(-1.24234e-09 0.00309228 8.15343e-14)
(-1.24066e-09 0.00309468 8.14843e-14)
(-1.24487e-09 0.00310452 1.46501e-13)
(-1.25031e-09 0.00311535 1.49333e-13)
(-1.25539e-09 0.00312617 1.46625e-13)
(-1.25998e-09 0.003136 8.17359e-14)
(-1.2579e-09 0.00313841 8.12302e-14)
(-1.2626e-09 0.00314824 1.46791e-13)
(-1.26746e-09 0.00315907 1.48964e-13)
(-1.27323e-09 0.00316989 1.47044e-13)
(-1.27698e-09 0.00317973 8.12131e-14)
(-1.27591e-09 0.00318213 8.18496e-14)
(-1.2794e-09 0.00319197 1.46075e-13)
(-1.28571e-09 0.0032028 1.5054e-13)
(-1.28982e-09 0.00321372 1.50643e-13)
(-1.29613e-09 0.00322455 1.46323e-13)
(-1.29963e-09 0.00323438 8.20788e-14)
(-1.29855e-09 0.00323679 8.10825e-14)
(-1.30231e-09 0.00324662 1.46967e-13)
(-1.30808e-09 0.00325745 1.49041e-13)
(-1.31294e-09 0.00326827 1.47026e-13)
(-1.31764e-09 0.00327811 8.14431e-14)
(-1.31555e-09 0.00328051 8.15971e-14)
(-1.32015e-09 0.00329035 1.46525e-13)
(-1.32522e-09 0.00330117 1.4939e-13)
(-1.33066e-09 0.003312 1.46716e-13)
(-1.33488e-09 0.00332183 8.16842e-14)
(-1.3332e-09 0.00332424 8.13867e-14)
(-1.33745e-09 0.00333407 1.46687e-13)
(-1.34281e-09 0.0033449 1.49239e-13)
(-1.34801e-09 0.00335572 1.46821e-13)
(-1.35243e-09 0.00336556 8.15827e-14)
(-1.35058e-09 0.00336796 8.14591e-14)
(-1.35498e-09 0.0033778 1.46616e-13)
(-1.36021e-09 0.00338862 1.49277e-13)
(-1.36553e-09 0.00339945 1.46773e-13)
(-1.36984e-09 0.00340928 8.16028e-14)
(-1.36808e-09 0.00341168 8.14375e-14)
(-1.3724e-09 0.00342152 1.46616e-13)
(-1.37771e-09 0.00343235 1.49267e-13)
(-1.38294e-09 0.00344317 1.46753e-13)
(-1.38735e-09 0.003453 8.16139e-14)
(-1.3855e-09 0.00345541 8.14064e-14)
(-1.38991e-09 0.00346524 1.46644e-13)
(-1.39511e-09 0.00347607 1.49209e-13)
(-1.40047e-09 0.00348689 1.46805e-13)
(-1.40473e-09 0.00349673 8.15307e-14)
(-1.40305e-09 0.00349913 8.1497e-14)
(-1.40726e-09 0.00350897 1.4652e-13)
(-1.41271e-09 0.00351979 1.4934e-13)
(-1.41778e-09 0.00353062 1.46625e-13)
(-1.42237e-09 0.00354045 8.17295e-14)
(-1.42029e-09 0.00354286 8.12461e-14)
(-1.42499e-09 0.00355269 1.46809e-13)
(-1.42985e-09 0.00356352 1.48974e-13)
(-1.43562e-09 0.00357434 1.47044e-13)
(-1.43937e-09 0.00358418 8.12089e-14)
(-1.4383e-09 0.00358658 8.18649e-14)
(-1.44179e-09 0.00359642 1.46094e-13)
(-1.4481e-09 0.00360725 1.5055e-13)
(-1.45221e-09 0.00361817 1.50643e-13)
(-1.45853e-09 0.003629 1.46314e-13)
(-1.46202e-09 0.00363883 8.20693e-14)
(-1.46094e-09 0.00364124 8.10918e-14)
(-1.4647e-09 0.00365107 1.46977e-13)
(-1.47047e-09 0.0036619 1.49041e-13)
(-1.47533e-09 0.00367272 1.47019e-13)
(-1.48003e-09 0.00368256 8.14334e-14)
(-1.47794e-09 0.00368496 8.16082e-14)
(-1.48254e-09 0.0036948 1.46534e-13)
(-1.48761e-09 0.00370562 1.49393e-13)
(-1.49305e-09 0.00371645 1.46708e-13)
(-1.49727e-09 0.00372628 8.16785e-14)
(-1.49559e-09 0.00372868 8.13945e-14)
(-1.49985e-09 0.00373852 1.46701e-13)
(-1.5052e-09 0.00374935 1.49238e-13)
(-1.51041e-09 0.00376017 1.4682e-13)
(-1.51481e-09 0.00377 8.15702e-14)
(-1.51298e-09 0.00377241 8.14764e-14)
(-1.51736e-09 0.00378224 1.4662e-13)
(-1.52261e-09 0.00379307 1.4929e-13)
(-1.52791e-09 0.00380389 1.46757e-13)
(-1.53224e-09 0.00381373 8.16099e-14)
(-1.53046e-09 0.00381613 8.14325e-14)
(-1.53481e-09 0.00382597 1.46648e-13)
(-1.54008e-09 0.00383679 1.49249e-13)
(-1.54536e-09 0.00384762 1.46779e-13)
(-1.54971e-09 0.00385745 8.15747e-14)
(-1.54792e-09 0.00385986 8.14581e-14)
(-1.55226e-09 0.00386969 1.46609e-13)
(-1.55756e-09 0.00388052 1.49273e-13)
(-1.5628e-09 0.00389134 1.46734e-13)
(-1.56719e-09 0.00390118 8.16092e-14)
(-1.56535e-09 0.00390358 8.14087e-14)
(-1.56976e-09 0.00391342 1.46654e-13)
(-1.57497e-09 0.00392424 1.49203e-13)
(-1.58032e-09 0.00393507 1.46797e-13)
(-1.58458e-09 0.0039449 8.15178e-14)
(-1.5829e-09 0.0039473 8.15071e-14)
(-1.58712e-09 0.00395714 1.46525e-13)
(-1.59255e-09 0.00396797 1.4934e-13)
(-1.59763e-09 0.00397879 1.46614e-13)
(-1.60222e-09 0.00398863 8.17211e-14)
(-1.60014e-09 0.00399103 8.12536e-14)
(-1.60484e-09 0.00400087 1.46817e-13)
(-1.6097e-09 0.00401169 1.48973e-13)
(-1.61547e-09 0.00402252 1.47036e-13)
(-1.61922e-09 0.00403235 8.11994e-14)
(-1.61815e-09 0.00403475 8.18743e-14)
(-1.62164e-09 0.00404459 1.46102e-13)
(-1.62795e-09 0.00405542 1.50551e-13)
(-1.63206e-09 0.00406634 1.50633e-13)
(-1.63838e-09 0.00407717 1.46298e-13)
(-1.64187e-09 0.004087 8.20553e-14)
(-1.64079e-09 0.00408941 8.10963e-14)
(-1.64455e-09 0.00409924 1.46976e-13)
(-1.65032e-09 0.00411007 1.49034e-13)
(-1.65518e-09 0.00412089 1.47003e-13)
(-1.65988e-09 0.00413073 8.14219e-14)
(-1.65779e-09 0.00413313 8.16112e-14)
(-1.66239e-09 0.00414297 1.46536e-13)
(-1.66746e-09 0.00415379 1.49385e-13)
(-1.6729e-09 0.00416462 1.46695e-13)
(-1.67712e-09 0.00417445 8.16646e-14)
(-1.67544e-09 0.00417686 8.14017e-14)
(-1.67969e-09 0.00418669 1.46699e-13)
(-1.68505e-09 0.00419752 1.49236e-13)
(-1.69025e-09 0.00420834 1.46802e-13)
(-1.69467e-09 0.00421818 8.15646e-14)
(-1.69282e-09 0.00422058 8.14749e-14)
(-1.69722e-09 0.00423042 1.4663e-13)
(-1.70245e-09 0.00424124 1.49276e-13)
(-1.70777e-09 0.00425207 1.46757e-13)
(-1.71208e-09 0.0042619 8.15862e-14)
(-1.71033e-09 0.0042643 8.1454e-14)
(-1.71464e-09 0.00427414 1.46631e-13)
(-1.71995e-09 0.00428497 1.49268e-13)
(-1.72519e-09 0.00429579 1.4674e-13)
(-1.72959e-09 0.00430563 8.15987e-14)
(-1.72774e-09 0.00430803 8.14236e-14)
(-1.73215e-09 0.00431787 1.46661e-13)
(-1.73735e-09 0.00432869 1.49212e-13)
(-1.74271e-09 0.00433952 1.46794e-13)
(-1.74697e-09 0.00434935 8.15169e-14)
(-1.74529e-09 0.00435175 8.15148e-14)
(-1.7495e-09 0.00436159 1.46539e-13)
(-1.75495e-09 0.00437241 1.49345e-13)
(-1.76002e-09 0.00438324 1.46616e-13)
(-1.76461e-09 0.00439307 8.17171e-14)
(-1.76253e-09 0.00439548 8.12645e-14)
(-1.76723e-09 0.00440531 1.46829e-13)
(-1.77209e-09 0.00441614 1.4898e-13)
(-1.77786e-09 0.00442696 1.47037e-13)
(-1.78161e-09 0.0044368 8.11973e-14)
(-1.78054e-09 0.0044392 8.18843e-14)
(-1.78403e-09 0.00444904 1.46115e-13)
(-1.79034e-09 0.00445987 1.50559e-13)
(-1.79445e-09 0.00447079 1.50633e-13)
(-1.80077e-09 0.00448162 1.46292e-13)
(-1.80426e-09 0.00449145 8.20498e-14)
(-1.80318e-09 0.00449386 8.11025e-14)
(-1.80694e-09 0.00450369 1.46983e-13)
(-1.81271e-09 0.00451452 1.49034e-13)
(-1.81757e-09 0.00452534 1.46999e-13)
(-1.82227e-09 0.00453518 8.14157e-14)
(-1.82019e-09 0.00453758 8.16192e-14)
(-1.82478e-09 0.00454742 1.46542e-13)
(-1.82985e-09 0.00455824 1.49388e-13)
(-1.83529e-09 0.00456907 1.4669e-13)
(-1.83951e-09 0.0045789 8.1662e-14)
(-1.83783e-09 0.0045813 8.14062e-14)
(-1.84209e-09 0.00459114 1.4671e-13)
(-1.84744e-09 0.00460197 1.49235e-13)
(-1.85265e-09 0.00461279 1.46804e-13)
(-1.85705e-09 0.00462263 8.15549e-14)
(-1.85522e-09 0.00462503 8.14889e-14)
(-1.85961e-09 0.00463487 1.4663e-13)
(-1.86485e-09 0.00464569 1.49289e-13)
(-1.87015e-09 0.00465652 1.46744e-13)
(-1.87448e-09 0.00466635 8.15959e-14)
(-1.8727e-09 0.00466875 8.14455e-14)
(-1.87705e-09 0.00467859 1.4666e-13)
(-1.88232e-09 0.00468941 1.49249e-13)
(-1.8876e-09 0.00470024 1.46767e-13)
(-1.89195e-09 0.00471007 8.15619e-14)
(-1.89016e-09 0.00471248 8.14717e-14)
(-1.8945e-09 0.00472231 1.46622e-13)
(-1.8998e-09 0.00473314 1.49274e-13)
(-1.90504e-09 0.00474396 1.46724e-13)
(-1.90943e-09 0.0047538 8.15975e-14)
(-1.90759e-09 0.0047562 8.14228e-14)
(-1.912e-09 0.00476604 1.46669e-13)
(-1.91721e-09 0.00477686 1.49206e-13)
(-1.92256e-09 0.00478769 1.46789e-13)
(-1.92682e-09 0.00479752 8.15071e-14)
(-1.92514e-09 0.00479993 8.15219e-14)
(-1.92936e-09 0.00480976 1.46541e-13)
(-1.9348e-09 0.00482059 1.49345e-13)
(-1.93987e-09 0.00483141 1.46607e-13)
(-1.94446e-09 0.00484125 8.17115e-14)
(-1.94238e-09 0.00484365 8.12687e-14)
(-1.94708e-09 0.00485349 1.46834e-13)
(-1.95194e-09 0.00486431 1.48979e-13)
(-1.95771e-09 0.00487514 1.47031e-13)
(-1.96147e-09 0.00488497 8.11905e-14)
(-1.96039e-09 0.00488737 8.18904e-14)
(-1.96388e-09 0.00489721 1.46119e-13)
(-1.97019e-09 0.00490804 1.50559e-13)
(-1.9743e-09 0.00491896 1.50626e-13)
(-1.98062e-09 0.00492979 1.46281e-13)
(-1.98411e-09 0.00493963 8.20399e-14)
(-1.98303e-09 0.00494203 8.11054e-14)
(-1.98679e-09 0.00495187 1.46981e-13)
(-1.99256e-09 0.00496269 1.49029e-13)
(-1.99742e-09 0.00497352 1.46987e-13)
(-2.00212e-09 0.00498335 8.1408e-14)
(-2.00004e-09 0.00498575 8.16205e-14)
(-2.00463e-09 0.00499559 1.46543e-13)
(-2.0097e-09 0.00500641 1.49381e-13)
(-2.01515e-09 0.00501724 1.46682e-13)
(-2.01936e-09 0.00502707 8.16516e-14)
(-2.01768e-09 0.00502948 8.14117e-14)
(-2.02194e-09 0.00503931 1.46707e-13)
(-2.02729e-09 0.00505014 1.49234e-13)
(-2.0325e-09 0.00506096 1.4679e-13)
(-2.03691e-09 0.0050708 8.15526e-14)
(-2.03506e-09 0.0050732 8.14854e-14)
(-2.03946e-09 0.00508304 1.46639e-13)
(-2.04469e-09 0.00509386 1.49275e-13)
(-2.05001e-09 0.00510469 1.46746e-13)
(-2.05432e-09 0.00511452 8.15752e-14)
(-2.05257e-09 0.00511693 8.1465e-14)
(-2.05688e-09 0.00512676 1.46642e-13)
(-2.0622e-09 0.00513759 1.49269e-13)
(-2.06743e-09 0.00514841 1.46731e-13)
(-2.07183e-09 0.00515825 8.15886e-14)
(-2.06998e-09 0.00516065 8.14351e-14)
(-2.0744e-09 0.00517049 1.46673e-13)
(-2.0796e-09 0.00518131 1.49214e-13)
(-2.08496e-09 0.00519214 1.46786e-13)
(-2.08921e-09 0.00520197 8.15076e-14)
(-2.08753e-09 0.00520437 8.15268e-14)
(-2.09175e-09 0.00521421 1.46551e-13)
(-2.09719e-09 0.00522504 1.49348e-13)
(-2.10226e-09 0.00523586 1.46609e-13)
(-2.10685e-09 0.00524569 8.17088e-14)
(-2.10477e-09 0.0052481 8.12768e-14)
(-2.10947e-09 0.00525793 1.46843e-13)
(-2.11433e-09 0.00526876 1.48984e-13)
(-2.1201e-09 0.00527958 1.47032e-13)
(-2.12386e-09 0.00528942 8.11895e-14)
(-2.12278e-09 0.00529182 8.18975e-14)
(-2.12627e-09 0.00530166 1.46129e-13)
(-2.13259e-09 0.00531249 1.50564e-13)
(-2.1367e-09 0.00532341 1.50627e-13)
(-2.14301e-09 0.00533424 1.46278e-13)
(-2.1465e-09 0.00534407 8.20365e-14)
(-2.14542e-09 0.00534648 8.11099e-14)
(-2.14918e-09 0.00535631 1.46987e-13)
(-2.15495e-09 0.00536714 1.4903e-13)
(-2.15981e-09 0.00537796 1.46986e-13)
(-2.16451e-09 0.0053878 8.14037e-14)
(-2.16243e-09 0.0053902 8.16267e-14)
(-2.16702e-09 0.00540004 1.46547e-13)
(-2.17209e-09 0.00541086 1.49385e-13)
(-2.17753e-09 0.00542169 1.46678e-13)
(-2.18175e-09 0.00543152 8.16507e-14)
(-2.18007e-09 0.00543393 8.14144e-14)
(-2.18433e-09 0.00544376 1.46716e-13)
(-2.18968e-09 0.00545459 1.49232e-13)
(-2.19489e-09 0.00546541 1.46793e-13)
(-2.1993e-09 0.00547525 8.15445e-14)
(-2.19746e-09 0.00547765 8.14974e-14)
(-2.20185e-09 0.00548749 1.46638e-13)
(-2.20709e-09 0.00549831 1.49288e-13)
(-2.21239e-09 0.00550914 1.46734e-13)
(-2.21673e-09 0.00551897 8.15863e-14)
(-2.21494e-09 0.00552137 8.14545e-14)
(-2.21929e-09 0.00553121 1.46668e-13)
(-2.22457e-09 0.00554204 1.49249e-13)
(-2.22984e-09 0.00555286 1.46758e-13)
(-2.23419e-09 0.00556269 8.1553e-14)
(-2.23241e-09 0.0055651 8.14812e-14)
(-2.23674e-09 0.00557493 1.46632e-13)
(-2.24204e-09 0.00558576 1.49276e-13)
(-2.24728e-09 0.00559658 1.46717e-13)
(-2.25167e-09 0.00560642 8.15893e-14)
(-2.24984e-09 0.00560882 8.14327e-14)
(-2.25424e-09 0.00561866 1.46679e-13)
(-2.25945e-09 0.00562948 1.49208e-13)
(-2.2648e-09 0.00564031 1.46783e-13)
(-2.26906e-09 0.00565014 8.14997e-14)
(-2.26738e-09 0.00565255 8.15322e-14)
(-2.2716e-09 0.00566238 1.46552e-13)
(-2.27704e-09 0.00567321 1.49348e-13)
(-2.28211e-09 0.00568403 1.46603e-13)
(-2.2867e-09 0.00569387 8.17048e-14)
(-2.28462e-09 0.00569627 8.12793e-14)
(-2.28932e-09 0.00570611 1.46846e-13)
(-2.29418e-09 0.00571693 1.48983e-13)
(-2.29995e-09 0.00572776 1.47028e-13)
(-2.30371e-09 0.00573759 8.11842e-14)
(-2.30263e-09 0.00573999 8.19017e-14)
(-2.30612e-09 0.00574983 1.46131e-13)
(-2.31244e-09 0.00576066 1.50564e-13)
(-2.31655e-09 0.00577158 1.50621e-13)
(-2.32286e-09 0.00578241 1.4627e-13)
(-2.32635e-09 0.00579225 8.2029e-14)
(-2.32527e-09 0.00579465 8.11117e-14)
(-2.32903e-09 0.00580449 1.46985e-13)
(-2.3348e-09 0.00581531 1.49026e-13)
(-2.33966e-09 0.00582614 1.46976e-13)
(-2.34436e-09 0.00583597 8.13981e-14)
(-2.34228e-09 0.00583837 8.16272e-14)
(-2.34687e-09 0.00584821 1.46548e-13)
(-2.35194e-09 0.00585904 1.49379e-13)
(-2.35739e-09 0.00586986 1.46672e-13)
(-2.3616e-09 0.0058797 8.16424e-14)
(-2.35992e-09 0.0058821 8.14187e-14)
(-2.36418e-09 0.00589193 1.46713e-13)
(-2.36953e-09 0.00590276 1.49232e-13)
(-2.37474e-09 0.00591358 1.46782e-13)
(-2.37915e-09 0.00592342 8.1544e-14)
(-2.3773e-09 0.00592582 8.14929e-14)
(-2.3817e-09 0.00593566 1.46646e-13)
(-2.38694e-09 0.00594648 1.49275e-13)
(-2.39225e-09 0.00595731 1.46739e-13)
(-2.39656e-09 0.00596714 8.15673e-14)
(-2.39481e-09 0.00596955 8.14728e-14)
(-2.39912e-09 0.00597938 1.46649e-13)
(-2.40444e-09 0.00599021 1.49269e-13)
(-2.40967e-09 0.00600103 1.46724e-13)
(-2.41407e-09 0.00601087 8.15813e-14)
(-2.41222e-09 0.00601327 8.14433e-14)
(-2.41664e-09 0.00602311 1.46681e-13)
(-2.42184e-09 0.00603393 1.49215e-13)
(-2.4272e-09 0.00604476 1.4678e-13)
(-2.43145e-09 0.00605459 8.1501e-14)
(-2.42978e-09 0.00605699 8.15354e-14)
(-2.43399e-09 0.00606683 1.4656e-13)
(-2.43943e-09 0.00607766 1.4935e-13)
(-2.4445e-09 0.00608848 1.46605e-13)
(-2.4491e-09 0.00609832 8.17027e-14)
(-2.44701e-09 0.00610072 8.12857e-14)
(-2.45171e-09 0.00611055 1.46852e-13)
(-2.45657e-09 0.00612138 1.48988e-13)
(-2.46234e-09 0.00613221 1.47029e-13)
(-2.4661e-09 0.00614204 8.11839e-14)
(-2.46502e-09 0.00614444 8.1907e-14)
(-2.46851e-09 0.00615428 1.46139e-13)
(-2.47483e-09 0.00616511 1.50568e-13)
(-2.47894e-09 0.00617603 1.50623e-13)
(-2.48525e-09 0.00618686 1.46267e-13)
(-2.48874e-09 0.0061967 8.20269e-14)
(-2.48766e-09 0.0061991 8.11151e-14)
(-2.49142e-09 0.00620893 1.4699e-13)
(-2.49719e-09 0.00621976 1.49026e-13)
(-2.50205e-09 0.00623058 1.46976e-13)
(-2.50675e-09 0.00624042 8.13949e-14)
(-2.50467e-09 0.00624282 8.16322e-14)
(-2.50926e-09 0.00625266 1.46551e-13)
(-2.51434e-09 0.00626348 1.49382e-13)
(-2.51978e-09 0.00627431 1.46669e-13)
(-2.52399e-09 0.00628414 8.16425e-14)
(-2.52231e-09 0.00628655 8.14202e-14)
(-2.52657e-09 0.00629638 1.46721e-13)
(-2.53192e-09 0.00630721 1.49231e-13)
(-2.53713e-09 0.00631803 1.46786e-13)
(-2.54154e-09 0.00632787 8.15368e-14)
(-2.5397e-09 0.00633027 8.15037e-14)
(-2.54409e-09 0.00634011 1.46643e-13)
(-2.54933e-09 0.00635093 1.49287e-13)
(-2.55463e-09 0.00636176 1.46727e-13)
(-2.55897e-09 0.00637159 8.15792e-14)
(-2.55718e-09 0.00637399 8.14611e-14)
(-2.56153e-09 0.00638383 1.46674e-13)
(-2.56681e-09 0.00639466 1.49249e-13)
(-2.57208e-09 0.00640548 1.46752e-13)
(-2.57643e-09 0.00641532 8.15464e-14)
(-2.57465e-09 0.00641772 8.14881e-14)
(-2.57898e-09 0.00642756 1.46638e-13)
(-2.58428e-09 0.00643838 1.49276e-13)
(-2.58953e-09 0.00644921 1.46711e-13)
(-2.59391e-09 0.00645904 8.15833e-14)
(-2.59208e-09 0.00646144 8.144e-14)
(-2.59648e-09 0.00647128 1.46686e-13)
(-2.60169e-09 0.0064821 1.4921e-13)
(-2.60704e-09 0.00649293 1.46779e-13)
(-2.6113e-09 0.00650276 8.14941e-14)
(-2.60962e-09 0.00650517 8.15398e-14)
(-2.61384e-09 0.006515 1.4656e-13)
(-2.61928e-09 0.00652583 1.4935e-13)
(-2.62435e-09 0.00653665 1.46599e-13)
(-2.62895e-09 0.00654649 8.16999e-14)
(-2.62686e-09 0.00654889 8.12871e-14)
(-2.63156e-09 0.00655873 1.46855e-13)
(-2.63642e-09 0.00656955 1.48986e-13)
(-2.64219e-09 0.00658038 1.47025e-13)
(-2.64595e-09 0.00659021 8.11795e-14)
(-2.64487e-09 0.00659262 8.19101e-14)
(-2.64837e-09 0.00660245 1.46141e-13)
(-2.65468e-09 0.00661328 1.50568e-13)
(-2.65879e-09 0.0066242 1.50618e-13)
(-2.6651e-09 0.00663503 1.46261e-13)
(-2.66859e-09 0.00664487 8.20209e-14)
(-2.66752e-09 0.00664727 8.11165e-14)
(-2.67127e-09 0.00665711 1.46988e-13)
(-2.67704e-09 0.00666793 1.49023e-13)
(-2.6819e-09 0.00667876 1.46968e-13)
(-2.6866e-09 0.00668859 8.13908e-14)
(-2.68452e-09 0.00669099 8.1632e-14)
(-2.68911e-09 0.00670083 1.46552e-13)
(-2.69418e-09 0.00671166 1.49377e-13)
(-2.69963e-09 0.00672248 1.46665e-13)
(-2.70384e-09 0.00673232 8.16355e-14)
(-2.70216e-09 0.00673472 8.1424e-14)
(-2.70642e-09 0.00674456 1.46717e-13)
(-2.71178e-09 0.00675538 1.49231e-13)