/*--------------------------------*- C++ -*----------------------------------*\
| =========                 |                                                 |
| \\      /  F ield         | OpenFOAM: The Open Source CFD Toolbox           |
|  \\    /   O peration     | Version:  2206                                  |
|   \\  /    A nd           | Website:  www.openfoam.com                      |
|    \\/     M anipulation  |                                                 |
\*---------------------------------------------------------------------------*/
FoamFile
{
    version     2.0;
    format      ascii;
    arch        "LSB;label=32;scalar=64";
    class       surfaceScalarField;
    location    "110";
    object      phi;
}
// * * * * * * * * * * * * * * * * * * * * * * * * * * * * * * * * * * * * * //

dimensions      [0 3 -1 0 0 0 0];

oriented        oriented;

internalField   nonuniform List<scalar> 
94990
(
-5.40185e-25
-2.52322e-24
-1.12601e-24
5.65286e-25
-2.15948e-24
1.05547e-24
-3.52121e-24
1.35136e-24
-5.32726e-24
1.81576e-24
-7.54296e-24
2.20793e-24
-1.01374e-23
2.60227e-24
-1.31457e-23
3.00206e-24
-1.6552e-23
3.41275e-24
-2.03605e-23
3.80311e-24
-2.45664e-23
4.21132e-24
-2.91786e-23
4.60741e-24
-3.41865e-23
5.01263e-24
-3.95998e-23
5.40891e-24
-4.54098e-23
5.81416e-24
-5.16249e-23
6.21114e-24
-5.82369e-23
6.61571e-24
-6.52535e-23
7.01294e-24
-7.26674e-23
7.41729e-24
-8.04856e-23
7.81491e-24
-8.87015e-23
8.21886e-24
-9.73213e-23
8.61674e-24
-1.06339e-22
9.02051e-24
-1.1576e-22
9.41858e-24
-1.2558e-22
9.82214e-24
-1.35803e-22
1.02204e-23
-1.46425e-22
1.06238e-23
-1.57449e-22
1.10223e-23
-1.68873e-22
1.14254e-23
-1.80699e-22
1.18241e-23
-1.92924e-22
1.2227e-23
-2.05552e-22
1.26259e-23
-2.18579e-22
1.30287e-23
-2.32009e-22
1.34277e-23
-2.45837e-22
1.38303e-23
-2.60069e-22
1.42295e-23
-2.74699e-22
1.4632e-23
-2.89732e-22
1.50313e-23
-3.05165e-22
1.54337e-23
-3.20999e-22
1.58331e-23
-3.37233e-22
1.62354e-23
-3.5387e-22
1.66349e-23
-3.70906e-22
1.7037e-23
-3.88344e-22
1.74366e-23
-4.06181e-22
1.78387e-23
-4.24421e-22
1.82384e-23
-4.4306e-22
1.86404e-23
-4.62102e-22
1.90402e-23
-4.81543e-22
1.94421e-23
-5.01386e-22
1.98419e-23
-5.21629e-22
2.02438e-23
-5.42274e-22
2.06437e-23
-5.63318e-22
2.10455e-23
-5.84765e-22
2.14454e-23
-6.06611e-22
2.18472e-23
-6.28859e-22
2.22472e-23
-6.51507e-22
2.26489e-23
-6.74557e-22
2.30489e-23
-6.98007e-22
2.34506e-23
-7.21859e-22
2.38507e-23
-7.4611e-22
2.42523e-23
-7.70764e-22
2.46524e-23
-7.95817e-22
2.5054e-23
-8.21272e-22
2.54542e-23
-8.47127e-22
2.58557e-23
-8.73384e-22
2.62559e-23
-9.0004e-22
2.66574e-23
-9.27099e-22
2.70577e-23
-9.54557e-22
2.74591e-23
-9.82417e-22
2.78594e-23
-1.01068e-21
2.82609e-23
-1.03934e-21
2.86611e-23
-1.0684e-21
2.90626e-23
-1.09787e-21
2.94629e-23
-1.12773e-21
2.98643e-23
-1.15799e-21
3.02646e-23
-1.18866e-21
3.0666e-23
-1.21973e-21
3.10663e-23
-1.25119e-21
3.14677e-23
-1.28306e-21
3.18681e-23
-1.31533e-21
3.22694e-23
-1.348e-21
3.26698e-23
-1.38107e-21
3.30711e-23
-1.41454e-21
3.34715e-23
-1.44842e-21
3.38728e-23
-1.48269e-21
3.42733e-23
-1.51736e-21
3.46746e-23
-1.55244e-21
3.5075e-23
-1.58792e-21
3.54763e-23
-1.62379e-21
3.58767e-23
-1.66007e-21
3.6278e-23
-1.69675e-21
3.66784e-23
-1.73383e-21
3.70797e-23
-1.77131e-21
3.74802e-23
-1.80919e-21
3.78814e-23
-1.84747e-21
3.82819e-23
-1.88616e-21
3.86831e-23
-1.92524e-21
3.90836e-23
-1.96472e-21
3.94848e-23
-2.00461e-21
3.98854e-23
-2.0449e-21
4.02866e-23
-2.08558e-21
4.06871e-23
-2.12667e-21
4.10883e-23
-2.16816e-21
4.14888e-23
-2.21005e-21
4.189e-23
-2.25234e-21
4.22905e-23
-2.29503e-21
4.26917e-23
-2.33812e-21
4.30923e-23
-2.38162e-21
4.34934e-23
-2.42551e-21
4.3894e-23
-2.46981e-21
4.42952e-23
-2.5145e-21
4.46957e-23
-2.5596e-21
4.50969e-23
-2.6051e-21
4.54974e-23
-2.651e-21
4.58986e-23
-2.69729e-21
4.62991e-23
-2.74399e-21
4.67003e-23
-2.7911e-21
4.71009e-23
-2.8386e-21
4.7502e-23
-2.8865e-21
4.79026e-23
-2.9348e-21
4.83037e-23
-2.98351e-21
4.87043e-23
-3.03261e-21
4.91055e-23
-3.08212e-21
4.9506e-23
-3.13203e-21
4.99072e-23
-3.18234e-21
5.03078e-23
-3.23304e-21
5.07089e-23
-3.28415e-21
5.11095e-23
-3.33566e-21
5.15106e-23
-3.38758e-21
5.19112e-23
-3.43989e-21
5.23123e-23
-3.4926e-21
5.27129e-23
-3.54571e-21
5.31141e-23
-3.59923e-21
5.35147e-23
-3.65314e-21
5.39158e-23
-3.70746e-21
5.43164e-23
-3.76218e-21
5.47175e-23
-3.8173e-21
5.51181e-23
-3.87282e-21
5.55192e-23
-3.92874e-21
5.59198e-23
-3.98506e-21
5.63209e-23
-4.04178e-21
5.67215e-23
-4.0989e-21
5.71226e-23
-4.15642e-21
5.75233e-23
-4.21435e-21
5.79244e-23
-4.27267e-21
5.8325e-23
-4.3314e-21
5.87261e-23
-4.39053e-21
5.91267e-23
-4.45005e-21
5.95278e-23
-4.50998e-21
5.99284e-23
-4.57031e-21
6.03295e-23
-4.63104e-21
6.07301e-23
-4.69217e-21
6.11312e-23
-4.7537e-21
6.15319e-23
-4.81564e-21
6.1933e-23
-4.87797e-21
6.23336e-23
-4.94071e-21
6.27347e-23
-5.00384e-21
6.31353e-23
-5.06738e-21
6.35364e-23
-5.13131e-21
6.3937e-23
-5.19565e-21
6.43381e-23
-5.26039e-21
6.47388e-23
-5.32553e-21
6.51398e-23
-5.39107e-21
6.55405e-23
-5.45701e-21
6.59416e-23
-5.52336e-21
6.63422e-23
-5.5901e-21
6.67433e-23
-5.65724e-21
6.71439e-23
-5.72479e-21
6.7545e-23
-5.79273e-21
6.79456e-23
-5.86108e-21
6.83467e-23
-5.92983e-21
6.87474e-23
-5.99897e-21
6.91484e-23
-6.06852e-21
6.95491e-23
-6.13847e-21
6.99502e-23
-6.20883e-21
7.03508e-23
-6.27958e-21
7.07519e-23
-6.35073e-21
7.11525e-23
-6.42228e-21
7.15536e-23
-6.49424e-21
7.19542e-23
-6.56659e-21
7.23553e-23
-6.63935e-21
7.2756e-23
-6.7125e-21
7.3157e-23
-6.78606e-21
7.35577e-23
-6.86002e-21
7.39588e-23
-6.93438e-21
7.43594e-23
-7.00914e-21
7.47605e-23
-7.0843e-21
7.51611e-23
-7.15986e-21
7.55622e-23
-7.23583e-21
7.59628e-23
-7.31219e-21
7.63639e-23
-7.38896e-21
7.67646e-23
-7.46612e-21
7.71656e-23
-7.54369e-21
7.75663e-23
-7.62165e-21
7.79674e-23
-7.70002e-21
7.8368e-23
-7.77879e-21
7.87691e-23
-7.85796e-21
7.91697e-23
-7.93753e-21
7.95708e-23
-8.0175e-21
7.99714e-23
-8.09788e-21
8.03725e-23
-8.17865e-21
8.07732e-23
-8.25982e-21
8.11742e-23
-8.3414e-21
8.15749e-23
-8.42337e-21
8.1976e-23
-8.50575e-21
8.23766e-23
-8.58853e-21
8.27777e-23
-8.67171e-21
8.31783e-23
-8.75529e-21
8.35794e-23
-8.83927e-21
8.398e-23
-8.92365e-21
8.43811e-23
-9.00843e-21
8.47818e-23
-9.09361e-21
8.51828e-23
-9.17919e-21
8.55835e-23
-9.26518e-21
8.59846e-23
-9.35156e-21
8.63852e-23
-9.43835e-21
8.67863e-23
-9.52554e-21
8.71869e-23
-9.61312e-21
8.7588e-23
-9.70111e-21
8.79886e-23
-9.7895e-21
8.83897e-23
-9.87829e-21
8.87904e-23
-9.96748e-21
8.91914e-23
-1.00571e-20
8.95921e-23
-1.01471e-20
8.99932e-23
-1.02375e-20
9.03938e-23
-1.03283e-20
9.07949e-23
-1.04195e-20
9.11955e-23
-1.05111e-20
9.15966e-23
-1.0603e-20
9.19972e-23
-1.06954e-20
9.23983e-23
-1.07882e-20
9.2799e-23
-1.08814e-20
9.32e-23
-1.0975e-20
9.36007e-23
-1.1069e-20
9.40018e-23
-1.11634e-20
9.44024e-23
-1.12583e-20
9.48035e-23
-1.13535e-20
9.52041e-23
-1.14491e-20
9.56052e-23
-1.15451e-20
9.60058e-23
-1.16415e-20
9.64069e-23
-1.17383e-20
9.68075e-23
-1.18355e-20
9.72086e-23
-1.19331e-20
9.76093e-23
-1.20311e-20
9.80104e-23
-1.21295e-20
9.8411e-23
-1.22283e-20
9.88121e-23
-1.23275e-20
9.92127e-23
-1.24272e-20
9.96138e-23
-1.25272e-20
1.00014e-22
-1.26276e-20
1.00416e-22
-1.27284e-20
1.00816e-22
-1.28296e-20
1.01217e-22
-1.29312e-20
1.01618e-22
-1.30333e-20
1.02019e-22
-1.31357e-20
1.0242e-22
-1.32385e-20
1.02821e-22
-1.33417e-20
1.03221e-22
-1.34453e-20
1.03622e-22
-1.35494e-20
1.04023e-22
-1.36538e-20
1.04424e-22
-1.37586e-20
1.04825e-22
-1.38638e-20
1.05226e-22
-1.39695e-20
1.05626e-22
-1.40755e-20
1.06028e-22
-1.41819e-20
1.06428e-22
-1.42888e-20
1.06829e-22
-1.4396e-20
1.0723e-22
-1.45036e-20
1.07631e-22
-1.46116e-20
1.08032e-22
-1.47201e-20
1.08433e-22
-1.48289e-20
1.08833e-22
-1.49381e-20
1.09234e-22
-1.50478e-20
1.09635e-22
-1.51578e-20
1.10036e-22
-1.52683e-20
1.10437e-22
-1.53791e-20
1.10838e-22
-1.54903e-20
1.11238e-22
-1.5602e-20
1.1164e-22
-1.5714e-20
1.1204e-22
-1.58264e-20
1.12441e-22
-1.59393e-20
1.12842e-22
-1.60525e-20
1.13243e-22
-1.61662e-20
1.13644e-22
-1.62802e-20
1.14045e-22
-1.63947e-20
1.14445e-22
-1.65095e-20
1.14846e-22
-1.66248e-20
1.15247e-22
-1.67404e-20
1.15648e-22
-1.68565e-20
1.16049e-22
-1.69729e-20
1.1645e-22
-1.70898e-20
1.16851e-22
-1.7207e-20
1.17252e-22
-1.73247e-20
1.17652e-22
-1.74427e-20
1.18053e-22
-1.75612e-20
1.18454e-22
-1.768e-20
1.18855e-22
-1.77993e-20
1.19256e-22
-1.79189e-20
1.19657e-22
-1.8039e-20
1.20057e-22
-1.81595e-20
1.20459e-22
-1.82803e-20
1.20859e-22
-1.84016e-20
1.2126e-22
-1.85232e-20
1.21661e-22
-1.86453e-20
1.22062e-22
-1.87678e-20
1.22463e-22
-1.88906e-20
1.22864e-22
-1.90139e-20
1.23264e-22
-1.91375e-20
1.23665e-22
-1.92616e-20
1.24066e-22
-1.93861e-20
1.24467e-22
-1.9511e-20
1.24868e-22
-1.96362e-20
1.25269e-22
-1.97619e-20
1.25669e-22
-1.9888e-20
1.26071e-22
-2.00144e-20
1.26471e-22
-2.01413e-20
1.26872e-22
-2.02686e-20
1.27273e-22
-2.03962e-20
1.27674e-22
-2.05243e-20
1.28075e-22
-2.06528e-20
1.28476e-22
-2.07817e-20
1.28876e-22
-2.0911e-20
1.29277e-22
-2.10406e-20
1.29678e-22
-2.11707e-20
1.30079e-22
-2.13012e-20
1.3048e-22
-2.14321e-20
1.30881e-22
-2.15634e-20
1.31281e-22
-2.1695e-20
1.31683e-22
-2.18271e-20
1.32083e-22
-2.19596e-20
1.32484e-22
-2.20925e-20
1.32885e-22
-2.22258e-20
1.33286e-22
-2.23595e-20
1.33687e-22
-2.24935e-20
1.34088e-22
-2.2628e-20
1.34488e-22
-2.27629e-20
1.3489e-22
-2.28982e-20
1.3529e-22
-2.30339e-20
1.35691e-22
-2.317e-20
1.36092e-22
-2.33065e-20
1.36493e-22
-2.34434e-20
1.36893e-22
-2.35807e-20
1.37295e-22
-2.37184e-20
1.37695e-22
-2.38565e-20
1.38096e-22
-2.3995e-20
1.38497e-22
-2.41339e-20
1.38898e-22
-2.42732e-20
1.39299e-22
-2.44129e-20
1.397e-22
-2.4553e-20
1.401e-22
-2.46935e-20
1.40502e-22
-2.48344e-20
1.40902e-22
-2.49757e-20
1.41303e-22
-2.51174e-20
1.41704e-22
-2.52595e-20
1.42105e-22
-2.5402e-20
1.42506e-22
-2.55449e-20
1.42907e-22
-2.56882e-20
1.43307e-22
-2.58319e-20
1.43708e-22
-2.5976e-20
1.44109e-22
-2.61205e-20
1.4451e-22
-2.62654e-20
1.44911e-22
-2.64107e-20
1.45312e-22
-2.65565e-20
1.45712e-22
-2.67026e-20
1.46114e-22
-2.68491e-20
1.46514e-22
-2.6996e-20
1.46915e-22
-2.71433e-20
1.47316e-22
-2.7291e-20
1.47717e-22
-2.74392e-20
1.48118e-22
-2.75877e-20
1.48519e-22
-2.77366e-20
1.48919e-22
-2.78859e-20
1.4932e-22
-2.80356e-20
1.49721e-22
-2.81858e-20
1.50122e-22
-2.83363e-20
1.50523e-22
-2.84872e-20
1.50924e-22
-2.86385e-20
1.51324e-22
-2.87902e-20
1.51726e-22
-2.89424e-20
1.52126e-22
-2.90949e-20
1.52527e-22
-2.92478e-20
1.52928e-22
-2.94012e-20
1.53329e-22
-2.95549e-20
1.5373e-22
-2.9709e-20
1.54131e-22
-2.98636e-20
1.54531e-22
-3.00185e-20
1.54933e-22
-3.01738e-20
1.55333e-22
-3.03295e-20
1.55734e-22
-3.04857e-20
1.56135e-22
-3.06422e-20
1.56536e-22
-3.07992e-20
1.56936e-22
-3.09565e-20
1.57338e-22
-3.11142e-20
1.57738e-22
-3.12724e-20
1.58139e-22
-3.14309e-20
1.5854e-22
-3.15899e-20
1.58941e-22
-3.17492e-20
1.59342e-22
-3.19089e-20
1.59743e-22
-3.20691e-20
1.60143e-22
-3.22296e-20
1.60545e-22
-3.23906e-20
1.60945e-22
-3.25519e-20
1.61346e-22
-3.27137e-20
1.61747e-22
-3.28758e-20
1.62148e-22
-3.30384e-20
1.62548e-22
-3.32013e-20
1.6295e-22
-3.33647e-20
1.6335e-22
-3.35284e-20
1.63751e-22
-3.36926e-20
1.64152e-22
-3.38571e-20
1.64553e-22
-3.40221e-20
1.64954e-22
-3.41874e-20
1.65355e-22
-3.43532e-20
1.65755e-22
-3.45193e-20
1.66157e-22
-3.46859e-20
1.66557e-22
-3.48528e-20
1.66958e-22
-3.50202e-20
1.67359e-22
-3.5188e-20
1.6776e-22
-3.53561e-20
1.68161e-22
-3.55247e-20
1.68562e-22
-3.56937e-20
1.68962e-22
-3.5863e-20
1.69364e-22
-3.60328e-20
1.69764e-22
-3.62029e-20
1.70165e-22
-3.63735e-20
1.70566e-22
-3.65445e-20
1.70967e-22
-3.67158e-20
1.71367e-22
-3.68876e-20
1.71769e-22
-3.70598e-20
1.72169e-22
-3.72324e-20
1.7257e-22
-3.74053e-20
1.72971e-22
-3.75787e-20
1.73372e-22
-3.77525e-20
1.73773e-22
-3.79266e-20
1.74174e-22
-3.81012e-20
1.74574e-22
-3.82762e-20
1.74976e-22
-3.84516e-20
1.75376e-22
-3.86273e-20
1.75777e-22
-3.88035e-20
1.76178e-22
-3.89801e-20
1.76579e-22
-3.91571e-20
1.76979e-22
-3.93345e-20
1.77381e-22
-3.95122e-20
1.77781e-22
-3.96904e-20
1.78182e-22
-3.9869e-20
1.78583e-22
-4.0048e-20
1.78984e-22
-4.02274e-20
1.79385e-22
-4.04072e-20
1.79786e-22
-4.05873e-20
1.80186e-22
-4.07679e-20
1.80588e-22
-4.09489e-20
1.80988e-22
-4.11303e-20
1.81389e-22
-4.13121e-20
1.8179e-22
-4.14943e-20
1.82191e-22
-4.16769e-20
1.82591e-22
-4.18599e-20
1.82993e-22
-4.20433e-20
1.83393e-22
-4.22271e-20
1.83794e-22
-4.24113e-20
1.84195e-22
-4.25959e-20
1.84596e-22
-4.27809e-20
1.84997e-22
-4.29662e-20
1.85398e-22
-4.3152e-20
1.85798e-22
-4.33382e-20
1.862e-22
-4.35248e-20
1.866e-22
-4.37118e-20
1.87001e-22
-4.38992e-20
1.87402e-22
-4.40871e-20
1.87803e-22
-4.42753e-20
1.88203e-22
-4.44639e-20
1.88605e-22
-4.46529e-20
1.89005e-22
-4.48423e-20
1.89407e-22
-4.50321e-20
1.89807e-22
-4.52223e-20
1.90208e-22
-4.54129e-20
1.90609e-22
-4.56039e-20
1.9101e-22
-4.57953e-20
1.9141e-22
-4.59871e-20
1.91812e-22
-4.61793e-20
1.92212e-22
-4.6372e-20
1.92613e-22
-4.6565e-20
1.93014e-22
-4.67584e-20
1.93415e-22
-4.69522e-20
1.93816e-22
-4.71464e-20
1.94217e-22
-4.7341e-20
1.94617e-22
-4.7536e-20
1.95019e-22
-4.77315e-20
1.95419e-22
-4.79273e-20
1.9582e-22
-4.81235e-20
1.96221e-22
-4.83201e-20
1.96622e-22
-4.85172e-20
1.97022e-22
-4.87146e-20
1.97424e-22
-4.89124e-20
1.97824e-22
-4.91106e-20
1.98225e-22
-4.93093e-20
1.98626e-22
-4.95083e-20
1.99027e-22
-4.97077e-20
1.99428e-22
-4.99075e-20
1.99829e-22
-5.01078e-20
2.00229e-22
-5.03084e-20
2.00631e-22
-5.05094e-20
2.01031e-22
-5.07109e-20
2.01432e-22
-5.09127e-20
2.01833e-22
-5.11149e-20
2.02234e-22
-5.13176e-20
2.02634e-22
-5.15206e-20
2.03036e-22
-5.1724e-20
2.03436e-22
-5.19279e-20
2.03838e-22
-5.21321e-20
2.04238e-22
-5.23367e-20
2.04639e-22
-5.25418e-20
2.0504e-22
-5.27472e-20
2.05441e-22
-5.29531e-20
2.05841e-22
-5.31593e-20
2.06243e-22
-5.3366e-20
2.06643e-22
-5.3573e-20
2.07044e-22
-5.37804e-20
2.07445e-22
-5.39883e-20
2.07846e-22
-5.41965e-20
2.08246e-22
-5.44052e-20
2.08648e-22
-5.46142e-20
2.09048e-22
-5.48237e-20
2.0945e-22
-5.50335e-20
2.0985e-22
-5.52438e-20
2.10251e-22
-5.54544e-20
2.10652e-22
-5.56655e-20
2.11053e-22
-5.58769e-20
2.11453e-22
-5.60888e-20
2.11855e-22
-5.6301e-20
2.12255e-22
-5.65137e-20
2.12656e-22
-5.67268e-20
2.13057e-22
-5.69402e-20
2.13458e-22
-5.71541e-20
2.13858e-22
-5.73683e-20
2.1426e-22
-5.7583e-20
2.1466e-22
-5.77981e-20
2.15062e-22
-5.80135e-20
2.15462e-22
-5.82294e-20
2.15863e-22
-5.84456e-20
2.16264e-22
-5.86623e-20
2.16665e-22
-5.88794e-20
2.17065e-22
-5.90968e-20
2.17467e-22
-5.93147e-20
2.17867e-22
-5.9533e-20
2.18269e-22
-5.97516e-20
2.18669e-22
-5.99707e-20
2.1907e-22
-6.01902e-20
2.1947e-22
-6.04101e-20
2.19872e-22
-6.06303e-20
2.20272e-22
-6.0851e-20
2.20674e-22
-6.10721e-20
2.21074e-22
-6.12936e-20
2.21475e-22
-6.15154e-20
2.21876e-22
-6.17377e-20
2.22277e-22
-6.19604e-20
2.22677e-22
-6.21835e-20
2.23079e-22
-6.24069e-20
2.23479e-22
-6.26308e-20
2.23881e-22
-6.28551e-20
2.24281e-22
-6.30798e-20
2.24682e-22
-6.33049e-20
2.25083e-22
-6.35303e-20
2.25484e-22
-6.37562e-20
2.25884e-22
-6.39825e-20
2.26286e-22
-6.42092e-20
2.26686e-22
-6.44363e-20
2.27087e-22
-6.46638e-20
2.27488e-22
-6.48917e-20
2.27889e-22
-6.512e-20
2.28289e-22
-6.53486e-20
2.28691e-22
-6.55777e-20
2.29091e-22
-6.58072e-20
2.29493e-22
-6.60371e-20
2.29893e-22
-6.62674e-20
2.30294e-22
-6.64981e-20
2.30695e-22
-6.67292e-20
2.31096e-22
-6.69607e-20
2.31496e-22
-6.71926e-20
2.31898e-22
-6.74249e-20
2.32298e-22
-6.76576e-20
2.32699e-22
-6.78907e-20
2.331e-22
-6.81242e-20
2.33501e-22
-6.83581e-20
2.33901e-22
-6.85924e-20
2.34303e-22
-6.88271e-20
2.34703e-22
-6.90622e-20
2.35105e-22
-6.92977e-20
2.35505e-22
-6.95336e-20
2.35906e-22
-6.97699e-20
2.36307e-22
-7.00066e-20
2.36708e-22
-7.02437e-20
2.37108e-22
-7.04813e-20
2.3751e-22
-7.07192e-20
2.3791e-22
-7.09575e-20
2.38312e-22
-7.11962e-20
2.38712e-22
-7.14353e-20
2.39113e-22
-7.16748e-20
2.39513e-22
-7.19147e-20
2.39915e-22
-7.2155e-20
2.40315e-22
-7.23958e-20
2.40717e-22
-7.26369e-20
2.41117e-22
-7.28784e-20
2.41518e-22
-7.31203e-20
2.41919e-22
-7.33626e-20
2.4232e-22
-7.36054e-20
2.4272e-22
-7.38485e-20
2.43122e-22
-7.4092e-20
2.43522e-22
-7.43359e-20
2.43924e-22
-7.45802e-20
2.44324e-22
-7.4825e-20
2.44725e-22
-7.50701e-20
2.45125e-22
-7.53156e-20
2.45527e-22
-7.55616e-20
2.45927e-22
-7.58079e-20
2.46329e-22
-7.60546e-20
2.46729e-22
-7.63017e-20
2.4713e-22
-7.65493e-20
2.47531e-22
-7.67972e-20
2.47932e-22
-7.70455e-20
2.48332e-22
-7.72943e-20
2.48734e-22
-7.75434e-20
2.49134e-22
-7.77929e-20
2.49536e-22
-7.80429e-20
2.49936e-22
-7.82932e-20
2.50337e-22
-7.85439e-20
2.50737e-22
-7.87951e-20
2.51139e-22
-7.90466e-20
2.51539e-22
-7.92986e-20
2.51941e-22
-7.95509e-20
2.52341e-22
-7.98036e-20
2.52743e-22
-8.00568e-20
2.53143e-22
-8.03103e-20
2.53544e-22
-8.05643e-20
2.53944e-22
-8.08186e-20
2.54346e-22
-8.10734e-20
2.54746e-22
-8.13285e-20
2.55148e-22
-8.15841e-20
2.55548e-22
-8.184e-20
2.55949e-22
-8.20964e-20
2.5635e-22
-8.23531e-20
2.56751e-22
-8.26103e-20
2.57151e-22
-8.28678e-20
2.57553e-22
-8.31258e-20
2.57953e-22
-8.33841e-20
2.58355e-22
-8.36429e-20
2.58755e-22
-8.3902e-20
2.59156e-22
-8.41616e-20
2.59556e-22
-8.44216e-20
2.59958e-22
-8.46819e-20
2.60358e-22
-8.49427e-20
2.6076e-22
-8.52038e-20
2.6116e-22
-8.54654e-20
2.61561e-22
-8.57274e-20
2.61962e-22
-8.59897e-20
2.62363e-22
-8.62525e-20
2.62763e-22
-8.65156e-20
2.63165e-22
-8.67792e-20
2.63565e-22
-8.70432e-20
2.63967e-22
-8.73075e-20
2.64367e-22
-8.75723e-20
2.64768e-22
-8.78375e-20
2.65168e-22
-8.8103e-20
2.6557e-22
-8.8369e-20
2.6597e-22
-8.86354e-20
2.66372e-22
-8.89022e-20
2.66772e-22
-8.91693e-20
2.67173e-22
-8.94369e-20
2.67574e-22
-8.97049e-20
2.67975e-22
-8.99733e-20
2.68375e-22
-9.0242e-20
2.68777e-22
-9.05112e-20
2.69177e-22
-9.07808e-20
2.69579e-22
-9.10508e-20
2.69979e-22
-9.13211e-20
2.7038e-22
-9.15919e-20
2.7078e-22
-9.18631e-20
2.71182e-22
-9.21347e-20
2.71582e-22
-9.24067e-20
2.71984e-22
-9.26791e-20
2.72384e-22
-9.29518e-20
2.72786e-22
-9.3225e-20
2.73186e-22
-9.34986e-20
2.73587e-22
-9.37726e-20
2.73987e-22
-9.4047e-20
2.74389e-22
-9.43218e-20
2.74789e-22
-9.4597e-20
2.75191e-22
-9.48726e-20
2.75591e-22
-9.51486e-20
2.75992e-22
-9.54249e-20
2.76392e-22
-9.57017e-20
2.76794e-22
-9.59789e-20
2.77194e-22
-9.62565e-20
2.77596e-22
-9.65345e-20
2.77996e-22
-9.68129e-20
2.78398e-22
-9.70917e-20
2.78798e-22
-9.73709e-20
2.79199e-22
-9.76505e-20
2.79599e-22
-9.79305e-20
2.80001e-22
-9.82109e-20
2.80401e-22
-9.84917e-20
2.80803e-22
-9.87729e-20
2.81203e-22
-9.90545e-20
2.81604e-22
-9.93365e-20
2.82005e-22
-9.96189e-20
2.82406e-22
-9.99017e-20
2.82806e-22
-1.00185e-19
2.83208e-22
-1.00469e-19
2.83608e-22
-1.00753e-19
2.8401e-22
-1.01037e-19
2.8441e-22
-1.01322e-19
2.84811e-22
-1.01607e-19
2.85211e-22
-1.01893e-19
2.85613e-22
-1.02179e-19
2.86013e-22
-1.02465e-19
2.86415e-22
-1.02752e-19
2.86815e-22
-1.03039e-19
2.87217e-22
-1.03327e-19
2.87617e-22
-1.03615e-19
2.88018e-22
-1.03903e-19
2.88418e-22
-1.04192e-19
2.8882e-22
-1.04481e-19
2.8922e-22
-1.04771e-19
2.89622e-22
-1.05061e-19
2.90022e-22
-1.05351e-19
2.90423e-22
-1.05642e-19
2.90823e-22
-1.05933e-19
2.91225e-22
-1.06225e-19
2.91625e-22
-1.06517e-19
2.92027e-22
-1.06809e-19
2.92427e-22
-1.07102e-19
2.92829e-22
-1.07395e-19
2.93229e-22
-1.07689e-19
2.9363e-22
-1.07983e-19
2.9403e-22
-1.08278e-19
2.94432e-22
-1.08572e-19
2.94832e-22
-1.08868e-19
2.95234e-22
-1.09163e-19
2.95634e-22
-1.09459e-19
2.96035e-22
-1.09756e-19
2.96435e-22
-1.10053e-19
2.96837e-22
-1.1035e-19
2.97237e-22
-1.10647e-19
2.97639e-22
-1.10945e-19
2.98039e-22
-1.11244e-19
2.98441e-22
-1.11543e-19
2.98841e-22
-1.11842e-19
2.99242e-22
-1.12142e-19
2.99642e-22
-1.12442e-19
3.00044e-22
-1.12742e-19
3.00444e-22
-1.13043e-19
3.00846e-22
-1.13344e-19
3.01246e-22
-1.13646e-19
3.01648e-22
-1.13948e-19
3.02047e-22
-1.1425e-19
3.02449e-22
-1.14553e-19
3.02849e-22
-1.14856e-19
3.03251e-22
-1.1516e-19
3.03651e-22
-1.15464e-19
3.04053e-22
-1.15769e-19
3.04453e-22
-1.16073e-19
3.04854e-22
-1.16379e-19
3.05254e-22
-1.16684e-19
3.05656e-22
-1.1699e-19
3.06056e-22
-1.17297e-19
3.06458e-22
-1.17604e-19
3.06858e-22
-1.17911e-19
3.0726e-22
-1.18219e-19
3.07659e-22
-1.18527e-19
3.08061e-22
-1.18835e-19
3.08461e-22
-1.19144e-19
3.08863e-22
-1.19453e-19
3.09263e-22
-1.19763e-19
3.09665e-22
-1.20073e-19
3.10065e-22
-1.20383e-19
3.10466e-22
-1.20694e-19
3.10866e-22
-1.21006e-19
3.11268e-22
-1.21317e-19
3.11668e-22
-1.21629e-19
3.1207e-22
-1.21942e-19
3.1247e-22
-1.22255e-19
3.12872e-22
-1.22568e-19
3.13272e-22
-1.22882e-19
3.13673e-22
-1.23196e-19
3.14073e-22
-1.2351e-19
3.14475e-22
-1.23825e-19
3.14875e-22
-1.2414e-19
3.15277e-22
-1.24456e-19
3.15677e-22
-1.24772e-19
3.16078e-22
-1.25089e-19
3.16478e-22
-1.25405e-19
3.1688e-22
-1.25723e-19
3.1728e-22
-1.2604e-19
3.17682e-22
-1.26358e-19
3.18082e-22
-1.26677e-19
3.18484e-22
-1.26996e-19
3.18884e-22
-1.27315e-19
3.19285e-22
-1.27635e-19
3.19685e-22
-1.27955e-19
3.20087e-22
-1.28275e-19
3.20487e-22
-1.28596e-19
3.20889e-22
-1.28918e-19
3.21289e-22
-1.29239e-19
3.21691e-22
-1.29561e-19
3.2209e-22
-1.29884e-19
3.22492e-22
-1.30207e-19
3.22892e-22
-1.3053e-19
3.23294e-22
-1.30854e-19
3.23694e-22
-1.31178e-19
3.24096e-22
-1.31502e-19
3.24496e-22
-1.31827e-19
3.24897e-22
-1.32153e-19
3.25297e-22
-1.32478e-19
3.25699e-22
-1.32804e-19
3.26099e-22
-1.33131e-19
3.26501e-22
-1.33458e-19
3.26901e-22
-1.33785e-19
3.27303e-22
-1.34113e-19
3.27702e-22
-1.34441e-19
3.28104e-22
-1.34769e-19
3.28504e-22
-1.35098e-19
3.28906e-22
-1.35428e-19
3.29306e-22
-1.35757e-19
3.29708e-22
-1.36087e-19
3.30108e-22
-1.36418e-19
3.30509e-22
-1.36749e-19
3.30909e-22
-1.3708e-19
3.31311e-22
-1.37412e-19
3.31711e-22
-1.37744e-19
3.32113e-22
-1.38076e-19
3.32513e-22
-1.38409e-19
3.32915e-22
-1.38743e-19
3.33314e-22
-1.39076e-19
3.33716e-22
-1.3941e-19
3.34116e-22
-1.39745e-19
3.34518e-22
-1.4008e-19
3.34918e-22
-1.40415e-19
3.3532e-22
-1.40751e-19
3.3572e-22
-1.41087e-19
3.36122e-22
-1.41424e-19
3.36521e-22
-1.41761e-19
3.36923e-22
-1.42098e-19
3.37323e-22
-1.42436e-19
3.37725e-22
-1.42774e-19
3.38125e-22
-1.43112e-19
3.38527e-22
-1.43451e-19
3.38926e-22
-1.4379e-19
3.39328e-22
-1.4413e-19
3.39728e-22
-1.4447e-19
3.4013e-22
-1.44811e-19
3.4053e-22
-1.45152e-19
3.40932e-22
-1.45493e-19
3.41332e-22
-1.45835e-19
3.41734e-22
-1.46177e-19
3.42133e-22
-1.4652e-19
3.42535e-22
-1.46862e-19
3.42935e-22
-1.47206e-19
3.43337e-22
-1.4755e-19
3.43737e-22
-1.47894e-19
3.44139e-22
-1.48238e-19
3.44539e-22
-1.48583e-19
3.4494e-22
-1.48928e-19
3.4534e-22
-1.49274e-19
3.45742e-22
-1.4962e-19
3.46142e-22
-1.49967e-19
3.46544e-22
-1.50314e-19
3.46944e-22
-1.50661e-19
3.47346e-22
-1.51009e-19
3.47745e-22
-1.51357e-19
3.48147e-22
-1.51706e-19
3.48547e-22
-1.52055e-19
3.48949e-22
-1.52404e-19
3.49349e-22
-1.52754e-19
3.49751e-22
-1.53104e-19
3.50151e-22
-1.53454e-19
3.50553e-22
-1.53805e-19
3.50952e-22
-1.54157e-19
3.51354e-22
-1.54508e-19
3.51754e-22
-1.54861e-19
3.52156e-22
-1.55213e-19
3.52556e-22
-1.55566e-19
3.52958e-22
-1.55919e-19
3.53357e-22
-1.56273e-19
3.53759e-22
-1.56627e-19
3.54159e-22
-1.56982e-19
3.54561e-22
-1.57337e-19
3.54961e-22
-1.57692e-19
3.55363e-22
-1.58048e-19
3.55763e-22
-1.58404e-19
3.56165e-22
-1.58761e-19
3.56564e-22
-1.59118e-19
3.56966e-22
-1.59475e-19
3.57366e-22
-1.59833e-19
3.57768e-22
-1.60191e-19
3.58168e-22
-1.6055e-19
3.5857e-22
-1.60909e-19
3.58969e-22
-1.61268e-19
3.59371e-22
-1.61628e-19
3.59771e-22
-1.61988e-19
3.60173e-22
-1.62348e-19
3.60573e-22
-1.62709e-19
3.60975e-22
-1.63071e-19
3.61375e-22
-1.63433e-19
3.61777e-22
-1.63795e-19
3.62176e-22
-1.64157e-19
3.62578e-22
-1.6452e-19
3.62978e-22
-1.64884e-19
3.6338e-22
-1.65247e-19
3.6378e-22
-1.65612e-19
3.64182e-22
-1.65976e-19
3.64581e-22
-1.66341e-19
3.64983e-22
-1.66707e-19
3.65383e-22
-1.67072e-19
3.65785e-22
-1.67439e-19
3.66185e-22
-1.67805e-19
3.66587e-22
-1.68172e-19
3.66987e-22
-1.6854e-19
3.67389e-22
-1.68907e-19
3.67788e-22
-1.69276e-19
3.6819e-22
-1.69644e-19
3.6859e-22
-1.70013e-19
3.68992e-22
-1.70383e-19
3.69392e-22
-1.70752e-19
3.69794e-22
-1.71122e-19
3.70193e-22
-1.71493e-19
3.70596e-22
-1.71864e-19
3.70995e-22
-1.72235e-19
3.71397e-22
-1.72607e-19
3.71797e-22
-1.72979e-19
3.72199e-22
-1.73352e-19
3.72599e-22
-1.73725e-19
3.73001e-22
-1.74098e-19
3.734e-22
-1.74472e-19
3.73802e-22
-1.74846e-19
3.74202e-22
-1.75221e-19
3.74604e-22
-1.75596e-19
3.75004e-22
-1.75971e-19
3.75406e-22
-1.76347e-19
3.75806e-22
-1.76724e-19
3.76208e-22
-1.771e-19
3.76607e-22
-1.77477e-19
3.77009e-22
-1.77855e-19
3.77409e-22
-1.78232e-19
3.77811e-22
-1.78611e-19
3.78211e-22
-1.78989e-19
3.78613e-22
-1.79368e-19
3.79012e-22
-1.79748e-19
3.79414e-22
-1.80127e-19
3.79814e-22
-1.80508e-19
3.80216e-22
-1.80888e-19
3.80616e-22
-1.81269e-19
3.81018e-22
-1.81651e-19
3.81418e-22
-1.82032e-19
3.8182e-22
-1.82415e-19
3.82219e-22
-1.82797e-19
3.82621e-22
-1.8318e-19
3.83021e-22
-1.83564e-19
3.83423e-22
-1.83948e-19
3.83823e-22
-1.84332e-19
3.84225e-22
-1.84716e-19
3.84624e-22
-1.85101e-19
3.85027e-22
-1.85487e-19
3.85426e-22
-1.85873e-19
3.85828e-22
-1.86259e-19
3.86228e-22
-1.86646e-19
3.8663e-22
-1.87033e-19
3.8703e-22
-1.8742e-19
3.87432e-22
-1.87808e-19
3.87831e-22
-1.88196e-19
3.88233e-22
-1.88585e-19
3.88633e-22
-1.88974e-19
3.89035e-22
-1.89363e-19
3.89435e-22
-1.89753e-19
3.89837e-22
-1.90143e-19
3.90236e-22
-1.90534e-19
3.90639e-22
-1.90925e-19
3.91038e-22
-1.91316e-19
3.9144e-22
-1.91708e-19
3.9184e-22
-1.921e-19
3.92242e-22
-1.92493e-19
3.92642e-22
-1.92886e-19
3.93044e-22
-1.9328e-19
3.93443e-22
-1.93673e-19
3.93845e-22
-1.94068e-19
3.94245e-22
-1.94462e-19
3.94647e-22
-1.94857e-19
3.95047e-22
-1.95253e-19
3.95449e-22
-1.95649e-19
3.95848e-22
-1.96045e-19
3.96251e-22
-1.96442e-19
3.9665e-22
-1.96839e-19
3.97052e-22
-1.97236e-19
3.97452e-22
-1.97634e-19
3.97854e-22
-1.98032e-19
3.98254e-22
-1.98431e-19
3.98656e-22
-1.9883e-19
3.99055e-22
-1.99229e-19
3.99458e-22
-1.99629e-19
3.99857e-22
-2.00029e-19
4.00259e-22
-2.0043e-19
4.00659e-22
-2.00831e-19
4.01061e-22
-2.01233e-19
4.0146e-22
-2.01635e-19
4.01863e-22
-2.02037e-19
4.02262e-22
-2.02439e-19
4.02664e-22
-2.02843e-19
4.03064e-22
-2.03246e-19
4.03466e-22
-2.0365e-19
4.03866e-22
-2.04054e-19
4.04268e-22
-2.04459e-19
4.04667e-22
-2.04864e-19
4.0507e-22
-2.05269e-19
4.05469e-22
-2.05675e-19
4.05871e-22
-2.06081e-19
4.06271e-22
-2.06488e-19
4.06673e-22
-2.06895e-19
4.07073e-22
-2.07303e-19
4.07475e-22
-2.07711e-19
4.07874e-22
-2.08119e-19
4.08276e-22
-2.08528e-19
4.08676e-22
-2.08937e-19
4.09078e-22
-2.09346e-19
4.09478e-22
-2.09756e-19
4.0988e-22
-2.10166e-19
4.10279e-22
-2.10577e-19
4.10682e-22
-2.10988e-19
4.11081e-22
-2.11399e-19
4.11483e-22
-2.11811e-19
4.11883e-22
-2.12224e-19
4.12285e-22
-2.12636e-19
4.12685e-22
-2.13049e-19
4.13087e-22
-2.13463e-19
4.13486e-22
-2.13877e-19
4.13889e-22
-2.14291e-19
4.14288e-22
-2.14706e-19
4.1469e-22
-2.15121e-19
4.1509e-22
-2.15536e-19
4.15492e-22
-2.15952e-19
4.15891e-22
-2.16369e-19
4.16294e-22
-2.16785e-19
4.16693e-22
-2.17202e-19
4.17095e-22
-2.1762e-19
4.17495e-22
-2.18038e-19
4.17897e-22
-2.18456e-19
4.18297e-22
-2.18875e-19
4.18699e-22
-2.19294e-19
4.19098e-22
-2.19713e-19
4.19501e-22
-2.20133e-19
4.199e-22
-2.20554e-19
4.20302e-22
-2.20974e-19
4.20702e-22
-2.21395e-19
4.21104e-22
-2.21817e-19
4.21503e-22
-2.22239e-19
4.21906e-22
-2.22661e-19
4.22305e-22
-2.23084e-19
4.22707e-22
-2.23507e-19
4.23107e-22
-2.2393e-19
4.23509e-22
-2.24354e-19
4.23909e-22
-2.24779e-19
4.24311e-22
-2.25203e-19
4.2471e-22
-2.25628e-19
4.25113e-22
-2.26054e-19
4.25512e-22
-2.2648e-19
4.25914e-22
-2.26906e-19
4.26314e-22
-2.27333e-19
4.26716e-22
-2.2776e-19
4.27115e-22
-2.28187e-19
4.27518e-22
-2.28615e-19
4.27917e-22
-2.29044e-19
4.2832e-22
-2.29472e-19
4.28719e-22
-2.29902e-19
4.29121e-22
-2.30331e-19
4.29521e-22
-2.30761e-19
4.29923e-22
-2.31191e-19
4.30322e-22
-2.31622e-19
4.30725e-22
-2.32053e-19
4.31124e-22
-2.32485e-19
4.31526e-22
-2.32917e-19
4.31926e-22
-2.33349e-19
4.32328e-22
-2.33782e-19
4.32727e-22
-2.34215e-19
4.3313e-22
-2.34648e-19
4.33529e-22
-2.35082e-19
4.33932e-22
-2.35517e-19
4.34331e-22
-2.35951e-19
4.34733e-22
-2.36386e-19
4.35133e-22
-2.36822e-19
4.35535e-22
-2.37258e-19
4.35934e-22
-2.37694e-19
4.36337e-22
-2.38131e-19
4.36736e-22
-2.38568e-19
4.37138e-22
-2.39006e-19
4.37538e-22
-2.39444e-19
4.3794e-22
-2.39882e-19
4.3834e-22
-2.40321e-19
4.38742e-22
-2.4076e-19
4.39141e-22
-2.41199e-19
4.39544e-22
-2.41639e-19
4.39943e-22
-2.4208e-19
4.40345e-22
-2.4252e-19
4.40745e-22
-2.42962e-19
4.41147e-22
-2.43403e-19
4.41546e-22
-2.43845e-19
4.41949e-22
-2.44287e-19
4.42348e-22
-2.4473e-19
4.4275e-22
-2.45173e-19
4.4315e-22
-2.45617e-19
4.43552e-22
-2.46061e-19
4.43952e-22
-2.46505e-19
4.44354e-22
-2.4695e-19
4.44753e-22
-2.47395e-19
4.45156e-22
-2.47841e-19
4.45555e-22
-2.48287e-19
4.45957e-22
-2.48733e-19
4.46357e-22
-2.4918e-19
4.46759e-22
-2.49627e-19
4.47158e-22
-2.50074e-19
4.47561e-22
-2.50522e-19
4.4796e-22
-2.50971e-19
4.48363e-22
-2.51419e-19
4.48762e-22
-2.51869e-19
4.49164e-22
-2.52318e-19
4.49564e-22
-2.52768e-19
4.49966e-22
-2.53219e-19
4.50365e-22
-2.53669e-19
4.50768e-22
-2.5412e-19
4.51167e-22
-2.54572e-19
4.51569e-22
-2.55024e-19
4.51969e-22
-2.55476e-19
4.52371e-22
-2.55929e-19
4.5277e-22
-2.56382e-19
4.53173e-22
-2.56836e-19
4.53572e-22
-2.5729e-19
4.53975e-22
-2.57744e-19
4.54374e-22
-2.58199e-19
4.54776e-22
-2.58654e-19
4.55176e-22
-2.5911e-19
4.55578e-22
-2.59566e-19
4.55977e-22
-2.60022e-19
4.5638e-22
-2.60479e-19
4.56779e-22
-2.60936e-19
4.57181e-22
-2.61394e-19
4.57581e-22
-2.61852e-19
4.57983e-22
-2.6231e-19
4.58382e-22
-2.62769e-19
4.58785e-22
-2.63228e-19
4.59184e-22
-2.63688e-19
4.59587e-22
-2.64148e-19
4.59986e-22
-2.64608e-19
4.60388e-22
-2.65069e-19
4.60788e-22
-2.6553e-19
4.6119e-22
-2.65992e-19
4.61589e-22
-2.66454e-19
4.61992e-22
-2.66916e-19
4.62391e-22
-2.67379e-19
4.62794e-22
-2.67842e-19
4.63193e-22
-2.68306e-19
4.63595e-22
-2.6877e-19
4.63994e-22
-2.69234e-19
4.64397e-22
-2.69699e-19
4.64796e-22
-2.70164e-19
4.65199e-22
-2.70629e-19
4.65598e-22
-2.71095e-19
4.66e-22
-2.71562e-19
4.664e-22
-2.72029e-19
4.66802e-22
-2.72496e-19
4.67201e-22
-2.72964e-19
4.67604e-22
-2.73432e-19
4.68003e-22
-2.739e-19
4.68406e-22
-2.74369e-19
4.68805e-22
-2.74838e-19
4.69207e-22
-2.75308e-19
4.69607e-22
-2.75778e-19
4.70009e-22