/*--------------------------------*- C++ -*----------------------------------*\
| =========                 |                                                 |
| \\      /  F ield         | OpenFOAM: The Open Source CFD Toolbox           |
|  \\    /   O peration     | Version:  2206                                  |
|   \\  /    A nd           | Website:  www.openfoam.com                      |
|    \\/     M anipulation  |                                                 |
\*---------------------------------------------------------------------------*/
FoamFile
{
    version     2.0;
    format      ascii;
    arch        "LSB;label=32;scalar=64";
    class       volVectorField;
    location    "570";
    object      U;
}
// * * * * * * * * * * * * * * * * * * * * * * * * * * * * * * * * * * * * * //

dimensions      [0 1 -1 0 0 0 0];

internalField   nonuniform List<vector> 
100000
(
(-6.42753e-12 6.47773e-06 -8.72082e-13)
(-5.48535e-12 1.20939e-05 8.78002e-14)
(-8.0638e-12 2.20451e-05 1.46838e-13)
(-1.46083e-11 3.27307e-05 1.53546e-13)
(-1.80286e-11 4.24182e-05 8.93537e-14)
(-1.70179e-11 4.49111e-05 7.46666e-14)
(-2.07849e-11 5.48211e-05 1.41782e-13)
(-2.64092e-11 6.56486e-05 1.48221e-13)
(-3.1388e-11 7.64578e-05 1.49608e-13)
(-3.59677e-11 8.62317e-05 8.41976e-14)
(-3.40518e-11 8.86589e-05 7.84683e-14)
(-3.84674e-11 9.85424e-05 1.43146e-13)
(-4.37003e-11 0.000109374 1.48705e-13)
(-4.89233e-11 0.000120192 1.47934e-13)
(-5.34015e-11 0.00012999 8.35497e-14)
(-5.14324e-11 0.000132405 7.88786e-14)
(-5.60629e-11 0.000142276 1.44439e-13)
(-6.09348e-11 0.000153108 1.48242e-13)
(-6.66885e-11 0.00016393 1.47871e-13)
(-7.04542e-11 0.000173739 8.24055e-14)
(-6.93982e-11 0.000176149 8.00226e-14)
(-7.28891e-11 0.000186014 1.44153e-13)
(-7.9174e-11 0.000196853 1.49845e-13)
(-8.32981e-11 0.000207771 1.51457e-13)
(-8.96099e-11 0.000218602 1.48125e-13)
(-9.31279e-11 0.000228419 8.36651e-14)
(-9.2006e-11 0.000230827 8.03014e-14)
(-9.57875e-11 0.000240686 1.46562e-13)
(-1.01533e-10 0.000251517 1.49567e-13)
(-1.06431e-10 0.000262342 1.48433e-13)
(-1.11112e-10 0.000272162 8.26649e-14)
(-1.09033e-10 0.000274569 8.0912e-14)
(-1.13614e-10 0.000284425 1.46077e-13)
(-1.18697e-10 0.000295256 1.49744e-13)
(-1.24139e-10 0.000306081 1.47805e-13)
(-1.28366e-10 0.000315904 8.2674e-14)
(-1.26669e-10 0.000318311 8.07526e-14)
(-1.30937e-10 0.000328164 1.46223e-13)
(-1.36277e-10 0.000338995 1.49457e-13)
(-1.41504e-10 0.000349821 1.47684e-13)
(-1.45906e-10 0.000359646 8.23904e-14)
(-1.44069e-10 0.000362053 8.08746e-14)
(-1.48455e-10 0.000371904 1.46131e-13)
(-1.53699e-10 0.000382734 1.49407e-13)
(-1.59001e-10 0.000393561 1.47447e-13)
(-1.63341e-10 0.000403387 8.22911e-14)
(-1.61555e-10 0.000405794 8.08664e-14)
(-1.65905e-10 0.000415644 1.46148e-13)
(-1.71173e-10 0.000426474 1.49288e-13)
(-1.76459e-10 0.000437301 1.47327e-13)
(-1.80804e-10 0.000447128 8.21481e-14)
(-1.79025e-10 0.000449535 8.09191e-14)
(-1.8336e-10 0.000459384 1.46104e-13)
(-1.88652e-10 0.000470214 1.49249e-13)
(-1.93902e-10 0.000481041 1.47171e-13)
(-1.98293e-10 0.00049087 8.20939e-14)
(-1.96457e-10 0.000493276 8.08938e-14)
(-2.00867e-10 0.000503124 1.46145e-13)
(-2.06067e-10 0.000513954 1.49129e-13)
(-2.11428e-10 0.000524781 1.47141e-13)
(-2.15682e-10 0.00053461 8.19304e-14)
(-2.14013e-10 0.000537016 8.10118e-14)
(-2.18223e-10 0.000546864 1.46014e-13)
(-2.23663e-10 0.000557694 1.49223e-13)
(-2.28735e-10 0.000568521 1.46884e-13)
(-2.33334e-10 0.000578351 8.20699e-14)
(-2.31253e-10 0.000580757 8.07798e-14)
(-2.35959e-10 0.000590604 1.46301e-13)
(-2.40804e-10 0.000601434 1.48828e-13)
(-2.46588e-10 0.000612261 1.47233e-13)
(-2.50334e-10 0.000622092 8.15078e-14)
(-2.49275e-10 0.000624498 8.14021e-14)
(-2.52759e-10 0.000634345 1.45605e-13)
(-2.59071e-10 0.000645182 1.50365e-13)
(-2.63181e-10 0.000656101 1.50875e-13)
(-2.69498e-10 0.000666936 1.46826e-13)
(-2.72996e-10 0.000676768 8.25361e-14)
(-2.71909e-10 0.000679174 8.08605e-14)
(-2.75671e-10 0.000689019 1.46856e-13)
(-2.81437e-10 0.000699849 1.49209e-13)
(-2.86308e-10 0.000710676 1.47474e-13)
(-2.91004e-10 0.000720508 8.18369e-14)
(-2.88921e-10 0.000722914 8.13822e-14)
(-2.93513e-10 0.000732759 1.46384e-13)
(-2.98588e-10 0.000743589 1.49519e-13)
(-3.04034e-10 0.000754417 1.47098e-13)
(-3.0825e-10 0.000764249 8.20358e-14)
(-3.06569e-10 0.000766655 8.11689e-14)
(-3.10826e-10 0.0007765 1.46526e-13)
(-3.16181e-10 0.000787329 1.49328e-13)
(-3.2139e-10 0.000798157 1.47148e-13)
(-3.25805e-10 0.00080799 8.1895e-14)
(-3.23957e-10 0.000810395 8.12403e-14)
(-3.28358e-10 0.00082024 1.46439e-13)
(-3.33588e-10 0.000831069 1.49333e-13)
(-3.38906e-10 0.000841897 1.47052e-13)
(-3.43223e-10 0.00085173 8.18799e-14)
(-3.41466e-10 0.000854136 8.12188e-14)
(-3.45782e-10 0.00086398 1.46423e-13)
(-3.51094e-10 0.00087481 1.49294e-13)
(-3.56329e-10 0.000885637 1.4699e-13)
(-3.60731e-10 0.000895471 8.18607e-14)
(-3.58884e-10 0.000897876 8.11872e-14)
(-3.63301e-10 0.00090772 1.46439e-13)
(-3.68499e-10 0.00091855 1.49209e-13)
(-3.73863e-10 0.000929378 1.47003e-13)
(-3.78115e-10 0.000939211 8.175e-14)
(-3.76445e-10 0.000941617 8.1278e-14)
(-3.80654e-10 0.000951461 1.46304e-13)
(-3.86097e-10 0.00096229 1.49317e-13)
(-3.91169e-10 0.000973118 1.4679e-13)
(-3.95768e-10 0.000982952 8.19232e-14)
(-3.93685e-10 0.000985357 8.10293e-14)
(-3.9839e-10 0.000995201 1.46581e-13)
(-4.0324e-10 0.00100603 1.48933e-13)
(-4.09021e-10 0.00101686 1.47175e-13)
(-4.1277e-10 0.00102669 8.13858e-14)
(-4.11705e-10 0.0010291 8.16418e-14)
(-4.15192e-10 0.00103894 1.45868e-13)
(-4.21505e-10 0.00104978 1.50486e-13)
(-4.25615e-10 0.0010607 1.50801e-13)
(-4.31932e-10 0.00107153 1.4662e-13)
(-4.35428e-10 0.00108137 8.23409e-14)
(-4.34344e-10 0.00108377 8.09858e-14)
(-4.38104e-10 0.00109362 1.46943e-13)
(-4.43873e-10 0.00110445 1.49165e-13)
(-4.48741e-10 0.00111527 1.473e-13)
(-4.53438e-10 0.00112511 8.16746e-14)
(-4.51356e-10 0.00112751 8.15025e-14)
(-4.55947e-10 0.00113736 1.4648e-13)
(-4.61024e-10 0.00114819 1.49495e-13)
(-4.66466e-10 0.00115901 1.46955e-13)
(-4.70685e-10 0.00116885 8.18996e-14)
(-4.69002e-10 0.00117125 8.12837e-14)
(-4.73263e-10 0.0011811 1.46633e-13)
(-4.78613e-10 0.00119193 1.49317e-13)
(-4.83828e-10 0.00120275 1.47039e-13)
(-4.88235e-10 0.00121259 8.17716e-14)
(-4.86397e-10 0.00121499 8.13619e-14)
(-4.90786e-10 0.00122484 1.46539e-13)
(-4.96032e-10 0.00123567 1.49349e-13)
(-5.01331e-10 0.00124649 1.4695e-13)
(-5.0567e-10 0.00125633 8.17933e-14)
(-5.03886e-10 0.00125874 8.13149e-14)
(-5.08234e-10 0.00126858 1.46554e-13)
(-5.13509e-10 0.00127941 1.4929e-13)
(-5.18789e-10 0.00129023 1.46947e-13)
(-5.23136e-10 0.00130007 8.17417e-14)
(-5.21355e-10 0.00130248 8.13376e-14)
(-5.25692e-10 0.00131232 1.46505e-13)
(-5.30987e-10 0.00132315 1.49297e-13)
(-5.36235e-10 0.00133398 1.4688e-13)
(-5.40625e-10 0.00134381 8.1761e-14)
(-5.38789e-10 0.00134622 8.12857e-14)
(-5.43197e-10 0.00135606 1.46541e-13)
(-5.48403e-10 0.00136689 1.49212e-13)
(-5.5376e-10 0.00137772 1.46924e-13)
(-5.58017e-10 0.00138755 8.16558e-14)
(-5.56342e-10 0.00138996 8.13818e-14)
(-5.60556e-10 0.0013998 1.46403e-13)
(-5.65997e-10 0.00141063 1.49334e-13)
(-5.71071e-10 0.00142146 1.46723e-13)
(-5.75667e-10 0.00143129 8.18454e-14)
(-5.73586e-10 0.0014337 8.11275e-14)
(-5.78288e-10 0.00144354 1.46686e-13)
(-5.83142e-10 0.00145437 1.48956e-13)
(-5.8892e-10 0.0014652 1.47125e-13)
(-5.92672e-10 0.00147503 8.13152e-14)
(-5.91604e-10 0.00147744 8.17422e-14)
(-5.95093e-10 0.00148728 1.45969e-13)
(-6.01406e-10 0.00149812 1.5052e-13)
(-6.05516e-10 0.00150904 1.5074e-13)
(-6.11832e-10 0.00151987 1.46498e-13)
(-6.15326e-10 0.00152971 8.22323e-14)
(-6.14246e-10 0.00153211 8.10357e-14)
(-6.18004e-10 0.00154195 1.46962e-13)
(-6.23775e-10 0.00155278 1.4912e-13)
(-6.28639e-10 0.00156361 1.47189e-13)
(-6.33339e-10 0.00157345 8.15815e-14)
(-6.31255e-10 0.00157585 8.15501e-14)
(-6.3585e-10 0.00158569 1.46509e-13)
(-6.40924e-10 0.00159652 1.49458e-13)
(-6.46368e-10 0.00160735 1.46862e-13)
(-6.50583e-10 0.00161719 8.18133e-14)
(-6.48905e-10 0.00161959 8.13361e-14)
(-6.53161e-10 0.00162944 1.46663e-13)
(-6.58518e-10 0.00164026 1.49295e-13)
(-6.63724e-10 0.00165109 1.46953e-13)
(-6.6814e-10 0.00166093 8.17019e-14)
(-6.66292e-10 0.00166333 8.14062e-14)
(-6.70694e-10 0.00167318 1.46584e-13)
(-6.75925e-10 0.001684 1.49323e-13)
(-6.81241e-10 0.00169483 1.46891e-13)
(-6.85558e-10 0.00170467 8.17131e-14)
(-6.83801e-10 0.00170707 8.13823e-14)
(-6.88118e-10 0.00171692 1.46577e-13)
(-6.93431e-10 0.00172774 1.49303e-13)
(-6.98665e-10 0.00173857 1.4686e-13)
(-7.03067e-10 0.00174841 8.17158e-14)
(-7.01219e-10 0.00175081 8.13491e-14)
(-7.05636e-10 0.00176066 1.46599e-13)
(-7.10836e-10 0.00177149 1.49236e-13)
(-7.16199e-10 0.00178231 1.46899e-13)
(-7.20451e-10 0.00179215 8.16249e-14)
(-7.18779e-10 0.00179455 8.14377e-14)
(-7.2299e-10 0.0018044 1.4647e-13)
(-7.28434e-10 0.00181523 1.49358e-13)
(-7.33507e-10 0.00182605 1.46709e-13)
(-7.38104e-10 0.00183589 8.18159e-14)
(-7.36021e-10 0.0018383 8.11859e-14)
(-7.40724e-10 0.00184814 1.46752e-13)
(-7.45578e-10 0.00185897 1.48986e-13)
(-7.51356e-10 0.00186979 1.47117e-13)
(-7.55108e-10 0.00187963 8.12905e-14)
(-7.54038e-10 0.00188204 8.18005e-14)
(-7.57528e-10 0.00189188 1.46037e-13)
(-7.63842e-10 0.00190271 1.50553e-13)
(-7.67952e-10 0.00191363 1.50728e-13)
(-7.74267e-10 0.00192447 1.46452e-13)
(-7.77762e-10 0.00193431 8.21875e-14)
(-7.76682e-10 0.00193671 8.10691e-14)
(-7.8044e-10 0.00194655 1.46989e-13)
(-7.86211e-10 0.00195738 1.49113e-13)
(-7.91076e-10 0.00196821 1.4715e-13)
(-7.95774e-10 0.00197805 8.15413e-14)
(-7.93692e-10 0.00198045 8.1585e-14)
(-7.98285e-10 0.00199029 1.46538e-13)
(-8.03361e-10 0.00200112 1.49458e-13)
(-8.08803e-10 0.00201195 1.46827e-13)
(-8.13021e-10 0.00202179 8.17803e-14)
(-8.11339e-10 0.00202419 8.13682e-14)
(-8.15599e-10 0.00203403 1.46699e-13)
(-8.20951e-10 0.00204486 1.49294e-13)
(-8.26164e-10 0.00205569 1.46929e-13)
(-8.30571e-10 0.00206553 8.16653e-14)
(-8.28734e-10 0.00206793 8.14481e-14)
(-8.33123e-10 0.00207777 1.46612e-13)
(-8.38369e-10 0.0020886 1.49339e-13)
(-8.43667e-10 0.00209943 1.46857e-13)
(-8.48006e-10 0.00210927 8.16991e-14)
(-8.46223e-10 0.00211167 8.14019e-14)
(-8.50571e-10 0.00212151 1.46634e-13)
(-8.55847e-10 0.00213234 1.4929e-13)
(-8.61126e-10 0.00214317 1.4687e-13)
(-8.65473e-10 0.00215301 8.1658e-14)
(-8.63691e-10 0.00215541 8.14258e-14)
(-8.68029e-10 0.00216525 1.46591e-13)
(-8.73325e-10 0.00217608 1.49307e-13)
(-8.78573e-10 0.00218691 1.46817e-13)
(-8.82962e-10 0.00219675 8.16872e-14)
(-8.81125e-10 0.00219915 8.13743e-14)
(-8.85533e-10 0.00220899 1.46631e-13)
(-8.90741e-10 0.00221982 1.4923e-13)
(-8.96097e-10 0.00223065 1.46873e-13)
(-9.00355e-10 0.00224049 8.15905e-14)
(-8.98678e-10 0.00224289 8.14713e-14)
(-9.02893e-10 0.00225273 1.46497e-13)
(-9.08334e-10 0.00226356 1.49362e-13)
(-9.13409e-10 0.00227439 1.46682e-13)
(-9.18004e-10 0.00228423 8.17889e-14)
(-9.15923e-10 0.00228663 8.12164e-14)
(-9.20624e-10 0.00229647 1.46785e-13)
(-9.25481e-10 0.0023073 1.4899e-13)
(-9.31257e-10 0.00231813 1.47097e-13)
(-9.3501e-10 0.00232797 8.12638e-14)
(-9.33939e-10 0.00233037 8.18342e-14)
(-9.3743e-10 0.00234022 1.46068e-13)
(-9.43743e-10 0.00235105 1.50562e-13)
(-9.47854e-10 0.00236197 1.50702e-13)
(-9.54169e-10 0.00237281 1.46406e-13)
(-9.57662e-10 0.00238264 8.21464e-14)
(-9.56584e-10 0.00238505 8.10859e-14)
(-9.60341e-10 0.00239489 1.46992e-13)
(-9.66113e-10 0.00240572 1.49095e-13)
(-9.70976e-10 0.00241655 1.47105e-13)
(-9.75676e-10 0.00242638 8.15063e-14)
(-9.73593e-10 0.00242879 8.16e-14)
(-9.78187e-10 0.00243863 1.46547e-13)
(-9.83261e-10 0.00244946 1.4944e-13)
(-9.88706e-10 0.00246029 1.4679e-13)
(-9.9292e-10 0.00247013 8.17446e-14)
(-9.91243e-10 0.00247253 8.13884e-14)
(-9.95498e-10 0.00248237 1.46705e-13)
(-1.00086e-09 0.0024932 1.49285e-13)
(-1.00606e-09 0.00250403 1.4689e-13)
(-1.01048e-09 0.00251387 8.16403e-14)
(-1.00863e-09 0.00251627 8.14596e-14)
(-1.01303e-09 0.00252611 1.46632e-13)
(-1.01826e-09 0.00253694 1.4932e-13)
(-1.02358e-09 0.00254777 1.46839e-13)
(-1.0279e-09 0.00255761 8.16575e-14)
(-1.02614e-09 0.00256001 8.14373e-14)
(-1.03045e-09 0.00256985 1.46629e-13)
(-1.03577e-09 0.00258068 1.49307e-13)
(-1.041e-09 0.00259151 1.46815e-13)
(-1.0454e-09 0.00260135 8.16662e-14)
(-1.04356e-09 0.00260375 8.1405e-14)
(-1.04797e-09 0.00261359 1.46655e-13)
(-1.05317e-09 0.00262442 1.49245e-13)
(-1.05854e-09 0.00263525 1.46863e-13)
(-1.06279e-09 0.00264509 8.15804e-14)
(-1.06112e-09 0.00264749 8.14949e-14)
(-1.06533e-09 0.00265733 1.46529e-13)
(-1.07077e-09 0.00266816 1.49374e-13)
(-1.07584e-09 0.00267899 1.46679e-13)
(-1.08044e-09 0.00268883 8.1777e-14)
(-1.07836e-09 0.00269123 8.12432e-14)
(-1.08306e-09 0.00270107 1.46816e-13)
(-1.08792e-09 0.0027119 1.49005e-13)
(-1.09369e-09 0.00272273 1.47095e-13)
(-1.09745e-09 0.00273257 8.12546e-14)
(-1.09638e-09 0.00273497 8.18607e-14)
(-1.09987e-09 0.00274481 1.461e-13)
(-1.10618e-09 0.00275565 1.50579e-13)
(-1.11029e-09 0.00276657 1.50699e-13)
(-1.1166e-09 0.00277741 1.46387e-13)
(-1.1201e-09 0.00278724 8.2128e-14)
(-1.11902e-09 0.00278965 8.11017e-14)
(-1.12278e-09 0.00279949 1.47006e-13)
(-1.12855e-09 0.00281032 1.49093e-13)
(-1.13341e-09 0.00282115 1.4709e-13)
(-1.13811e-09 0.00283098 8.14888e-14)
(-1.13603e-09 0.00283339 8.16176e-14)
(-1.14062e-09 0.00284323 1.46561e-13)
(-1.1457e-09 0.00285406 1.49442e-13)
(-1.15114e-09 0.00286489 1.46775e-13)
(-1.15536e-09 0.00287472 8.17318e-14)
(-1.15368e-09 0.00287713 8.14029e-14)
(-1.15794e-09 0.00288697 1.46725e-13)
(-1.16329e-09 0.0028978 1.49284e-13)
(-1.1685e-09 0.00290863 1.46884e-13)
(-1.17291e-09 0.00291846 8.16214e-14)
(-1.17107e-09 0.00292087 8.14838e-14)
(-1.17546e-09 0.00293071 1.46643e-13)
(-1.18071e-09 0.00294154 1.49334e-13)
(-1.186e-09 0.00295237 1.46818e-13)
(-1.19034e-09 0.0029622 8.1659e-14)
(-1.18856e-09 0.00296461 8.14391e-14)
(-1.19291e-09 0.00297445 1.46668e-13)
(-1.19818e-09 0.00298528 1.4929e-13)
(-1.20346e-09 0.00299611 1.46836e-13)
(-1.20781e-09 0.00300594 8.1622e-14)
(-1.20603e-09 0.00300835 8.14638e-14)
(-1.21037e-09 0.00301819 1.46628e-13)
(-1.21566e-09 0.00302902 1.49311e-13)
(-1.22091e-09 0.00303985 1.46789e-13)
(-1.2253e-09 0.00304968 8.16545e-14)
(-1.22346e-09 0.00305209 8.14137e-14)
(-1.22787e-09 0.00306193 1.46671e-13)
(-1.23308e-09 0.00307276 1.49239e-13)
(-1.23843e-09 0.00308359 1.46849e-13)
(-1.24269e-09 0.00309343 8.15615e-14)
(-1.24102e-09 0.00309583 8.15114e-14)
(-1.24523e-09 0.00310567 1.4654e-13)
(-1.25067e-09 0.0031165 1.49374e-13)
(-1.25575e-09 0.00312733 1.46664e-13)
(-1.26034e-09 0.00313717 8.17629e-14)
(-1.25826e-09 0.00313957 8.12573e-14)
(-1.26296e-09 0.00314941 1.4683e-13)
(-1.26782e-09 0.00316024 1.49005e-13)
(-1.27359e-09 0.00317107 1.47083e-13)
(-1.27735e-09 0.00318091 8.12402e-14)
(-1.27628e-09 0.00318331 8.18768e-14)
(-1.27977e-09 0.00319315 1.46115e-13)
(-1.28608e-09 0.00320399 1.50582e-13)
(-1.29019e-09 0.00321491 1.50685e-13)
(-1.29651e-09 0.00322574 1.46362e-13)
(-1.3e-09 0.00323558 8.21062e-14)
(-1.29892e-09 0.00323799 8.11094e-14)
(-1.30268e-09 0.00324783 1.47007e-13)
(-1.30845e-09 0.00325866 1.49082e-13)
(-1.31331e-09 0.00326948 1.47066e-13)
(-1.31801e-09 0.00327932 8.147e-14)
(-1.31593e-09 0.00328173 8.16243e-14)
(-1.32053e-09 0.00329157 1.46565e-13)
(-1.3256e-09 0.0033024 1.49431e-13)
(-1.33104e-09 0.00331322 1.46755e-13)
(-1.33526e-09 0.00332306 8.17115e-14)
(-1.33358e-09 0.00332547 8.14136e-14)
(-1.33784e-09 0.00333531 1.46726e-13)
(-1.34319e-09 0.00334614 1.4928e-13)
(-1.3484e-09 0.00335697 1.4686e-13)
(-1.35281e-09 0.0033668 8.16098e-14)
(-1.35097e-09 0.00336921 8.14863e-14)
(-1.35537e-09 0.00337905 1.46655e-13)
(-1.3606e-09 0.00338988 1.49318e-13)
(-1.36592e-09 0.00340071 1.46812e-13)
(-1.37023e-09 0.00341054 8.163e-14)
(-1.36848e-09 0.00341295 8.14645e-14)
(-1.37279e-09 0.00342279 1.46655e-13)
(-1.37811e-09 0.00343362 1.49308e-13)
(-1.38334e-09 0.00344445 1.46793e-13)
(-1.38774e-09 0.00345428 8.1641e-14)
(-1.38589e-09 0.00345669 8.14336e-14)
(-1.39031e-09 0.00346653 1.46683e-13)
(-1.39551e-09 0.00347736 1.4925e-13)
(-1.40087e-09 0.00348819 1.46844e-13)
(-1.40513e-09 0.00349802 8.15579e-14)
(-1.40345e-09 0.00350043 8.1524e-14)
(-1.40767e-09 0.00351027 1.4656e-13)
(-1.41311e-09 0.0035211 1.49381e-13)
(-1.41818e-09 0.00353193 1.46664e-13)
(-1.42278e-09 0.00354176 8.17566e-14)
(-1.4207e-09 0.00354417 8.12733e-14)
(-1.4254e-09 0.00355401 1.46848e-13)
(-1.43025e-09 0.00356484 1.49015e-13)
(-1.43603e-09 0.00357567 1.47083e-13)
(-1.43978e-09 0.0035855 8.1236e-14)
(-1.43871e-09 0.00358791 8.1892e-14)
(-1.4422e-09 0.00359775 1.46134e-13)
(-1.44852e-09 0.00360859 1.50592e-13)
(-1.45263e-09 0.00361951 1.50685e-13)
(-1.45894e-09 0.00363034 1.46353e-13)
(-1.46244e-09 0.00364018 8.20967e-14)
(-1.46136e-09 0.00364259 8.11188e-14)
(-1.46512e-09 0.00365243 1.47016e-13)
(-1.47089e-09 0.00366325 1.49082e-13)
(-1.47575e-09 0.00367408 1.47059e-13)
(-1.48045e-09 0.00368392 8.14603e-14)
(-1.47837e-09 0.00368633 8.16354e-14)
(-1.48296e-09 0.00369617 1.46573e-13)
(-1.48804e-09 0.00370699 1.49434e-13)
(-1.49348e-09 0.00371782 1.46747e-13)
(-1.4977e-09 0.00372766 8.17057e-14)
(-1.49601e-09 0.00373007 8.14215e-14)
(-1.50027e-09 0.00373991 1.4674e-13)
(-1.50563e-09 0.00375073 1.49279e-13)
(-1.51084e-09 0.00376156 1.46859e-13)
(-1.51525e-09 0.0037714 8.15972e-14)
(-1.51341e-09 0.00377381 8.15037e-14)
(-1.5178e-09 0.00378365 1.46659e-13)
(-1.52305e-09 0.00379448 1.49332e-13)
(-1.52834e-09 0.0038053 1.46797e-13)
(-1.53268e-09 0.00381514 8.16372e-14)
(-1.5309e-09 0.00381755 8.14595e-14)
(-1.53525e-09 0.00382739 1.46687e-13)
(-1.54052e-09 0.00383822 1.4929e-13)
(-1.5458e-09 0.00384904 1.46818e-13)
(-1.55015e-09 0.00385888 8.16017e-14)
(-1.54837e-09 0.00386129 8.14853e-14)
(-1.5527e-09 0.00387113 1.46648e-13)
(-1.558e-09 0.00388196 1.49314e-13)
(-1.56325e-09 0.00389278 1.46773e-13)
(-1.56764e-09 0.00390262 8.16364e-14)
(-1.5658e-09 0.00390503 8.14356e-14)
(-1.57021e-09 0.00391487 1.46694e-13)
(-1.57542e-09 0.0039257 1.49244e-13)
(-1.58077e-09 0.00393652 1.46837e-13)
(-1.58503e-09 0.00394636 8.15448e-14)
(-1.58335e-09 0.00394877 8.15344e-14)
(-1.58757e-09 0.00395861 1.46564e-13)
(-1.59301e-09 0.00396944 1.49381e-13)
(-1.59808e-09 0.00398026 1.46653e-13)
(-1.60268e-09 0.0039901 8.17484e-14)
(-1.6006e-09 0.00399251 8.12805e-14)
(-1.6053e-09 0.00400235 1.46857e-13)
(-1.61016e-09 0.00401318 1.49014e-13)
(-1.61593e-09 0.00402401 1.47076e-13)
(-1.61969e-09 0.00403384 8.12264e-14)
(-1.61861e-09 0.00403625 8.19016e-14)
(-1.6221e-09 0.00404609 1.46141e-13)
(-1.62842e-09 0.00405693 1.50594e-13)
(-1.63253e-09 0.00406784 1.50675e-13)
(-1.63884e-09 0.00407868 1.46337e-13)
(-1.64234e-09 0.00408852 8.20825e-14)
(-1.64126e-09 0.00409092 8.11235e-14)
(-1.64502e-09 0.00410076 1.47015e-13)
(-1.65079e-09 0.00411159 1.49075e-13)
(-1.65565e-09 0.00412242 1.47042e-13)
(-1.66035e-09 0.00413226 8.1449e-14)
(-1.65827e-09 0.00413466 8.16383e-14)
(-1.66286e-09 0.0041445 1.46575e-13)
(-1.66794e-09 0.00415533 1.49426e-13)
(-1.67338e-09 0.00416616 1.46735e-13)
(-1.67759e-09 0.004176 8.16917e-14)
(-1.67592e-09 0.0041784 8.14289e-14)
(-1.68017e-09 0.00418824 1.46738e-13)
(-1.68553e-09 0.00419907 1.49277e-13)
(-1.69074e-09 0.0042099 1.46842e-13)
(-1.69515e-09 0.00421974 8.15918e-14)
(-1.69331e-09 0.00422214 8.1502e-14)
(-1.69771e-09 0.00423198 1.46669e-13)
(-1.70294e-09 0.00424281 1.49317e-13)
(-1.70825e-09 0.00425364 1.46796e-13)
(-1.71257e-09 0.00426348 8.16133e-14)
(-1.71081e-09 0.00426589 8.14812e-14)
(-1.71513e-09 0.00427572 1.4667e-13)
(-1.72044e-09 0.00428655 1.4931e-13)
(-1.72568e-09 0.00429738 1.46779e-13)
(-1.73008e-09 0.00430722 8.1626e-14)
(-1.72823e-09 0.00430963 8.14506e-14)
(-1.73265e-09 0.00431947 1.46701e-13)
(-1.73785e-09 0.00433029 1.49253e-13)
(-1.74321e-09 0.00434112 1.46833e-13)
(-1.74747e-09 0.00435096 8.15439e-14)
(-1.74579e-09 0.00435337 8.1542e-14)
(-1.75e-09 0.00436321 1.46578e-13)
(-1.75545e-09 0.00437403 1.49386e-13)
(-1.76052e-09 0.00438486 1.46655e-13)
(-1.76512e-09 0.0043947 8.17444e-14)
(-1.76303e-09 0.00439711 8.12914e-14)
(-1.76774e-09 0.00440695 1.46869e-13)
(-1.77259e-09 0.00441777 1.49021e-13)
(-1.77837e-09 0.0044286 1.47076e-13)
(-1.78212e-09 0.00443844 8.12243e-14)
(-1.78105e-09 0.00444085 8.19116e-14)
(-1.78454e-09 0.00445069 1.46154e-13)
(-1.79085e-09 0.00446152 1.50601e-13)
(-1.79497e-09 0.00447244 1.50675e-13)
(-1.80128e-09 0.00448328 1.46332e-13)
(-1.80477e-09 0.00449312 8.2077e-14)
(-1.8037e-09 0.00449552 8.11297e-14)
(-1.80745e-09 0.00450536 1.47022e-13)
(-1.81323e-09 0.00451619 1.49076e-13)
(-1.81809e-09 0.00452702 1.47039e-13)
(-1.82279e-09 0.00453686 8.14429e-14)
(-1.82071e-09 0.00453926 8.16463e-14)
(-1.8253e-09 0.0045491 1.46581e-13)
(-1.83037e-09 0.00455993 1.49429e-13)
(-1.83582e-09 0.00457076 1.46729e-13)
(-1.84003e-09 0.0045806 8.16891e-14)
(-1.83835e-09 0.004583 8.14334e-14)
(-1.84261e-09 0.00459284 1.46749e-13)
(-1.84797e-09 0.00460367 1.49276e-13)
(-1.85318e-09 0.0046145 1.46844e-13)
(-1.85758e-09 0.00462434 8.15821e-14)
(-1.85575e-09 0.00462674 8.15159e-14)
(-1.86014e-09 0.00463658 1.4667e-13)
(-1.86538e-09 0.00464741 1.4933e-13)
(-1.87068e-09 0.00465824 1.46783e-13)
(-1.87502e-09 0.00466808 8.1623e-14)
(-1.87324e-09 0.00467048 8.14727e-14)
(-1.87758e-09 0.00468032 1.46699e-13)
(-1.88286e-09 0.00469115 1.4929e-13)
(-1.88814e-09 0.00470198 1.46806e-13)
(-1.89249e-09 0.00471182 8.15891e-14)
(-1.8907e-09 0.00471422 8.14988e-14)
(-1.89504e-09 0.00472406 1.46662e-13)
(-1.90034e-09 0.00473489 1.49315e-13)
(-1.90559e-09 0.00474572 1.46763e-13)
(-1.90998e-09 0.00475556 8.16245e-14)
(-1.90814e-09 0.00475796 8.145e-14)
(-1.91255e-09 0.0047678 1.46708e-13)
(-1.91776e-09 0.00477863 1.49247e-13)
(-1.92311e-09 0.00478946 1.46828e-13)
(-1.92737e-09 0.0047993 8.15343e-14)
(-1.92569e-09 0.0048017 8.1549e-14)
(-1.92991e-09 0.00481154 1.4658e-13)
(-1.93535e-09 0.00482237 1.49386e-13)
(-1.94042e-09 0.0048332 1.46647e-13)
(-1.94502e-09 0.00484304 8.17386e-14)
(-1.94294e-09 0.00484544 8.12958e-14)
(-1.94764e-09 0.00485528 1.46874e-13)
(-1.9525e-09 0.00486611 1.4902e-13)
(-1.95827e-09 0.00487694 1.47071e-13)
(-1.96202e-09 0.00488678 8.12176e-14)
(-1.96095e-09 0.00488919 8.19176e-14)
(-1.96444e-09 0.00489903 1.46159e-13)
(-1.97076e-09 0.00490986 1.50601e-13)
(-1.97487e-09 0.00492078 1.50668e-13)
(-1.98118e-09 0.00493162 1.46321e-13)
(-1.98467e-09 0.00494145 8.20672e-14)
(-1.9836e-09 0.00494386 8.11324e-14)
(-1.98735e-09 0.0049537 1.47021e-13)
(-1.99313e-09 0.00496453 1.4907e-13)
(-1.99799e-09 0.00497536 1.47027e-13)
(-2.00269e-09 0.0049852 8.1435e-14)
(-2.00061e-09 0.0049876 8.16478e-14)
(-2.0052e-09 0.00499744 1.46582e-13)
(-2.01027e-09 0.00500827 1.49422e-13)
(-2.01572e-09 0.0050191 1.46721e-13)
(-2.01993e-09 0.00502894 8.16788e-14)
(-2.01826e-09 0.00503134 8.14387e-14)
(-2.02251e-09 0.00504118 1.46747e-13)
(-2.02787e-09 0.00505201 1.49275e-13)
(-2.03307e-09 0.00506284 1.4683e-13)
(-2.03749e-09 0.00507268 8.15797e-14)
(-2.03564e-09 0.00507508 8.15126e-14)
(-2.04004e-09 0.00508492 1.46678e-13)
(-2.04528e-09 0.00509575 1.49317e-13)
(-2.05059e-09 0.00510658 1.46786e-13)
(-2.05491e-09 0.00511642 8.16024e-14)
(-2.05315e-09 0.00511882 8.1492e-14)
(-2.05747e-09 0.00512866 1.46681e-13)
(-2.06278e-09 0.00513949 1.4931e-13)
(-2.06802e-09 0.00515032 1.4677e-13)
(-2.07242e-09 0.00516016 8.16157e-14)
(-2.07057e-09 0.00516256 8.14623e-14)
(-2.07499e-09 0.0051724 1.46712e-13)
(-2.08019e-09 0.00518323 1.49255e-13)
(-2.08555e-09 0.00519406 1.46825e-13)
(-2.0898e-09 0.0052039 8.15348e-14)
(-2.08813e-09 0.0052063 8.15539e-14)
(-2.09234e-09 0.00521614 1.46591e-13)
(-2.09779e-09 0.00522697 1.49389e-13)
(-2.10286e-09 0.0052378 1.46649e-13)
(-2.10745e-09 0.00524764 8.17359e-14)
(-2.10537e-09 0.00525004 8.1304e-14)
(-2.11007e-09 0.00525988 1.46882e-13)
(-2.11493e-09 0.00527071 1.49026e-13)
(-2.12071e-09 0.00528154 1.47071e-13)
(-2.12446e-09 0.00529138 8.12167e-14)
(-2.12339e-09 0.00529378 8.19247e-14)
(-2.12688e-09 0.00530362 1.46169e-13)
(-2.13319e-09 0.00531446 1.50606e-13)
(-2.1373e-09 0.00532538 1.50669e-13)
(-2.14362e-09 0.00533621 1.46317e-13)
(-2.14711e-09 0.00534605 8.20639e-14)
(-2.14603e-09 0.00534846 8.11368e-14)
(-2.14979e-09 0.0053583 1.47026e-13)
(-2.15556e-09 0.00536913 1.49071e-13)
(-2.16043e-09 0.00537996 1.47025e-13)
(-2.16512e-09 0.00538979 8.14307e-14)
(-2.16304e-09 0.0053922 8.1654e-14)
(-2.16764e-09 0.00540204 1.46587e-13)
(-2.17271e-09 0.00541287 1.49426e-13)
(-2.17815e-09 0.0054237 1.46717e-13)
(-2.18237e-09 0.00543353 8.1678e-14)
(-2.18069e-09 0.00543594 8.14414e-14)
(-2.18495e-09 0.00544578 1.46756e-13)
(-2.1903e-09 0.00545661 1.49273e-13)
(-2.19551e-09 0.00546744 1.46833e-13)
(-2.19992e-09 0.00547727 8.15715e-14)
(-2.19809e-09 0.00547968 8.15247e-14)
(-2.20247e-09 0.00548952 1.46677e-13)
(-2.20772e-09 0.00550035 1.49329e-13)
(-2.21302e-09 0.00551118 1.46774e-13)
(-2.21736e-09 0.00552101 8.16135e-14)
(-2.21557e-09 0.00552342 8.14816e-14)
(-2.21992e-09 0.00553326 1.46707e-13)
(-2.2252e-09 0.00554409 1.4929e-13)
(-2.23048e-09 0.00555492 1.46798e-13)
(-2.23482e-09 0.00556475 8.158e-14)
(-2.23304e-09 0.00556716 8.15084e-14)
(-2.23738e-09 0.005577 1.46671e-13)
(-2.24268e-09 0.00558783 1.49317e-13)
(-2.24792e-09 0.00559866 1.46756e-13)
(-2.25231e-09 0.0056085 8.16165e-14)
(-2.25048e-09 0.0056109 8.14597e-14)
(-2.25488e-09 0.00562074 1.46718e-13)
(-2.26009e-09 0.00563157 1.49249e-13)
(-2.26545e-09 0.0056424 1.46822e-13)
(-2.26971e-09 0.00565224 8.15267e-14)
(-2.26803e-09 0.00565464 8.15594e-14)
(-2.27224e-09 0.00566448 1.46591e-13)
(-2.27769e-09 0.00567531 1.49389e-13)
(-2.28276e-09 0.00568614 1.46642e-13)
(-2.28736e-09 0.00569598 8.17321e-14)
(-2.28527e-09 0.00569838 8.13063e-14)
(-2.28997e-09 0.00570822 1.46886e-13)
(-2.29483e-09 0.00571905 1.49024e-13)
(-2.30061e-09 0.00572988 1.47067e-13)
(-2.30436e-09 0.00573972 8.12112e-14)
(-2.30329e-09 0.00574212 8.19291e-14)
(-2.30678e-09 0.00575196 1.46171e-13)
(-2.31309e-09 0.0057628 1.50606e-13)
(-2.31721e-09 0.00577372 1.50663e-13)
(-2.32352e-09 0.00578455 1.46309e-13)
(-2.32701e-09 0.00579439 8.20562e-14)
(-2.32594e-09 0.0057968 8.11389e-14)
(-2.32969e-09 0.00580664 1.47024e-13)
(-2.33547e-09 0.00581747 1.49067e-13)
(-2.34033e-09 0.00582829 1.47016e-13)
(-2.34503e-09 0.00583813 8.14253e-14)
(-2.34294e-09 0.00584054 8.16543e-14)
(-2.34754e-09 0.00585038 1.46587e-13)
(-2.35261e-09 0.00586121 1.4942e-13)
(-2.35806e-09 0.00587203 1.46711e-13)
(-2.36227e-09 0.00588187 8.16695e-14)
(-2.36059e-09 0.00588428 8.14459e-14)
(-2.36485e-09 0.00589412 1.46752e-13)
(-2.37021e-09 0.00590495 1.49273e-13)
(-2.37541e-09 0.00591577 1.46821e-13)
(-2.37983e-09 0.00592561 8.15713e-14)
(-2.37798e-09 0.00592802 8.152e-14)
(-2.38238e-09 0.00593786 1.46685e-13)
(-2.38761e-09 0.00594869 1.49316e-13)
(-2.39293e-09 0.00595952 1.46778e-13)
(-2.39725e-09 0.00596935 8.15944e-14)
(-2.39549e-09 0.00597176 8.15001e-14)
(-2.39981e-09 0.0059816 1.46688e-13)
(-2.40512e-09 0.00599243 1.49311e-13)
(-2.41035e-09 0.00600326 1.46764e-13)
(-2.41476e-09 0.00601309 8.16086e-14)
(-2.41291e-09 0.0060155 8.14704e-14)
(-2.41732e-09 0.00602534 1.4672e-13)
(-2.42253e-09 0.00603617 1.49256e-13)
(-2.42789e-09 0.006047 1.4682e-13)
(-2.43214e-09 0.00605683 8.1528e-14)
(-2.43047e-09 0.00605924 8.15627e-14)
(-2.43468e-09 0.00606908 1.46599e-13)
(-2.44012e-09 0.00607991 1.49391e-13)
(-2.4452e-09 0.00609074 1.46644e-13)
(-2.44979e-09 0.00610057 8.173e-14)
(-2.44771e-09 0.00610298 8.13127e-14)
(-2.45241e-09 0.00611282 1.46892e-13)
(-2.45727e-09 0.00612365 1.49028e-13)
(-2.46304e-09 0.00613448 1.47068e-13)
(-2.4668e-09 0.00614431 8.12109e-14)
(-2.46573e-09 0.00614672 8.19343e-14)
(-2.46922e-09 0.00615656 1.46179e-13)
(-2.47553e-09 0.0061674 1.50611e-13)
(-2.47964e-09 0.00617832 1.50665e-13)
(-2.48596e-09 0.00618915 1.46307e-13)
(-2.48945e-09 0.00619899 8.20541e-14)
(-2.48837e-09 0.0062014 8.11423e-14)
(-2.49213e-09 0.00621123 1.47029e-13)
(-2.4979e-09 0.00622206 1.49068e-13)
(-2.50276e-09 0.00623289 1.47015e-13)
(-2.50746e-09 0.00624273 8.14221e-14)
(-2.50538e-09 0.00624514 8.16593e-14)
(-2.50997e-09 0.00625498 1.46591e-13)
(-2.51505e-09 0.0062658 1.49423e-13)
(-2.52049e-09 0.00627663 1.46709e-13)
(-2.52471e-09 0.00628647 8.16696e-14)
(-2.52303e-09 0.00628888 8.14474e-14)
(-2.52729e-09 0.00629872 1.4676e-13)
(-2.53264e-09 0.00630954 1.49272e-13)
(-2.53785e-09 0.00632037 1.46825e-13)
(-2.54226e-09 0.00633021 8.15641e-14)
(-2.54042e-09 0.00633262 8.15308e-14)
(-2.54481e-09 0.00634246 1.46683e-13)
(-2.55006e-09 0.00635328 1.49328e-13)
(-2.55536e-09 0.00636411 1.46767e-13)
(-2.55969e-09 0.00637395 8.16063e-14)
(-2.55791e-09 0.00637636 8.14883e-14)
(-2.56226e-09 0.0063862 1.46713e-13)
(-2.56754e-09 0.00639702 1.4929e-13)
(-2.57281e-09 0.00640785 1.46792e-13)
(-2.57716e-09 0.00641769 8.15737e-14)
(-2.57538e-09 0.0064201 8.15152e-14)
(-2.57972e-09 0.00642994 1.46678e-13)
(-2.58501e-09 0.00644077 1.49317e-13)
(-2.59026e-09 0.00645159 1.46751e-13)
(-2.59465e-09 0.00646143 8.16104e-14)
(-2.59281e-09 0.00646384 8.14672e-14)
(-2.59722e-09 0.00647368 1.46726e-13)
(-2.60243e-09 0.00648451 1.49251e-13)
(-2.60779e-09 0.00649533 1.46818e-13)
(-2.61205e-09 0.00650517 8.15214e-14)
(-2.61037e-09 0.00650758 8.15669e-14)
(-2.61458e-09 0.00651742 1.46599e-13)
(-2.62002e-09 0.00652825 1.49391e-13)
(-2.6251e-09 0.00653907 1.46639e-13)
(-2.62969e-09 0.00654891 8.1727e-14)
(-2.62761e-09 0.00655132 8.13143e-14)
(-2.63231e-09 0.00656116 1.46894e-13)
(-2.63717e-09 0.00657199 1.49027e-13)
(-2.64295e-09 0.00658281 1.47065e-13)
(-2.6467e-09 0.00659265 8.12067e-14)
(-2.64563e-09 0.00659506 8.19373e-14)
(-2.64912e-09 0.0066049 1.4618e-13)
(-2.65543e-09 0.00661573 1.5061e-13)
(-2.65954e-09 0.00662665 1.5066e-13)
(-2.66586e-09 0.00663749 1.463e-13)
(-2.66935e-09 0.00664733 8.20483e-14)
(-2.66827e-09 0.00664973 8.11435e-14)
(-2.67203e-09 0.00665957 1.47027e-13)
(-2.6778e-09 0.0066704 1.49064e-13)
(-2.68266e-09 0.00668123 1.47008e-13)
(-2.68737e-09 0.00669107 8.14178e-14)
(-2.68528e-09 0.00669347 8.16593e-14)
(-2.68988e-09 0.00670331 1.46591e-13)
(-2.69495e-09 0.00671414 1.49418e-13)
(-2.7004e-09 0.00672497 1.46704e-13)
(-2.70461e-09 0.00673481 8.16627e-14)
(-2.70293e-09 0.00673721 8.1451e-14)
(-2.70719e-09 0.00674705 1.46757e-13)
(-2.71255e-09 0.00675788 1.49272e-13)