/*--------------------------------*- C++ -*----------------------------------*\
| =========                 |                                                 |
| \\      /  F ield         | OpenFOAM: The Open Source CFD Toolbox           |
|  \\    /   O peration     | Version:  2206                                  |
|   \\  /    A nd           | Website:  www.openfoam.com                      |
|    \\/     M anipulation  |                                                 |
\*---------------------------------------------------------------------------*/
FoamFile
{
    version     2.0;
    format      ascii;
    arch        "LSB;label=32;scalar=64";
    class       volScalarField;
    location    "560";
    object      p;
}
// * * * * * * * * * * * * * * * * * * * * * * * * * * * * * * * * * * * * * //

dimensions      [0 2 -2 0 0 0 0];

internalField   nonuniform List<scalar> 
100000
(
-9.20041e-10
8.87646e-09
1.52838e-08
2.41787e-08
3.39469e-08
4.74062e-08
5.52665e-08
7.1615e-08
8.5686e-08
1.06897e-07
1.26021e-07
1.44734e-07
1.68497e-07
1.92774e-07
2.21938e-07
2.51226e-07
2.78004e-07
3.12067e-07
3.44375e-07
3.84063e-07
4.21133e-07
4.58799e-07
5.00273e-07
5.44019e-07
5.90544e-07
6.40376e-07
6.91419e-07
7.39289e-07
7.94815e-07
8.48614e-07
9.09454e-07
9.68409e-07
1.02677e-06
1.09067e-06
1.15458e-06
1.2241e-06
1.29292e-06
1.36018e-06
1.43378e-06
1.50673e-06
1.58585e-06
1.66379e-06
1.74058e-06
1.82337e-06
1.90579e-06
1.99416e-06
2.08153e-06
2.16758e-06
2.2598e-06
2.3515e-06
2.44929e-06
2.54594e-06
2.64142e-06
2.74292e-06
2.84405e-06
2.9511e-06
3.0572e-06
3.16192e-06
3.27291e-06
3.38324e-06
3.49983e-06
3.61506e-06
3.72941e-06
3.84944e-06
3.9695e-06
4.09501e-06
4.22012e-06
4.3432e-06
4.47334e-06
4.60186e-06
4.73781e-06
4.87099e-06
5.00497e-06
5.14262e-06
5.28272e-06
5.42544e-06
5.57164e-06
5.71888e-06
5.86313e-06
6.01494e-06
6.16507e-06
6.32226e-06
6.4775e-06
6.63223e-06
6.79248e-06
6.95274e-06
7.11865e-06
7.28378e-06
7.44744e-06
7.61741e-06
7.78673e-06
7.96225e-06
8.13654e-06
8.30973e-06
8.48893e-06
8.66772e-06
8.85252e-06
9.03623e-06
9.21874e-06
9.40732e-06
9.59548e-06
9.78962e-06
9.98274e-06
1.01745e-05
1.03726e-05
1.057e-05
1.07736e-05
1.09759e-05
1.11773e-05
1.13844e-05
1.15916e-05
1.18042e-05
1.20163e-05
1.22265e-05
1.24437e-05
1.26593e-05
1.28823e-05
1.31025e-05
1.33236e-05
1.35483e-05
1.37755e-05
1.40053e-05
1.42386e-05
1.44729e-05
1.47042e-05
1.49431e-05
1.51803e-05
1.54246e-05
1.56669e-05
1.59088e-05
1.61561e-05
1.64034e-05
1.66564e-05
1.69087e-05
1.71594e-05
1.74165e-05
1.76729e-05
1.79355e-05
1.81968e-05
1.84571e-05
1.87234e-05
1.89893e-05
1.92612e-05
1.9532e-05
1.98016e-05
2.00773e-05
2.03525e-05
2.06338e-05
2.09139e-05
2.11929e-05
2.14779e-05
2.17626e-05
2.20532e-05
2.23427e-05
2.2631e-05
2.29255e-05
2.32194e-05
2.35195e-05
2.38182e-05
2.41161e-05
2.44197e-05
2.47232e-05
2.50323e-05
2.53409e-05
2.56475e-05
2.59612e-05
2.62733e-05
2.65928e-05
2.69095e-05
2.7227e-05
2.75482e-05
2.78718e-05
2.81981e-05
2.85279e-05
2.88586e-05
2.91864e-05
2.95218e-05
2.98555e-05
3.01962e-05
3.0535e-05
3.08733e-05
3.12171e-05
3.15609e-05
3.19103e-05
3.2259e-05
3.26062e-05
3.29598e-05
3.33126e-05
3.36717e-05
3.40296e-05
3.43863e-05
3.47491e-05
3.51114e-05
3.54798e-05
3.5847e-05
3.62131e-05
3.65853e-05
3.6957e-05
3.73347e-05
3.77114e-05
3.80867e-05
3.84683e-05
3.88493e-05
3.92365e-05
3.96224e-05
4.00074e-05
4.0398e-05
4.07887e-05
4.11849e-05
4.15806e-05
4.19743e-05
4.23751e-05
4.27743e-05
4.31809e-05
4.35847e-05
4.39893e-05
4.43976e-05
4.48084e-05
4.52217e-05
4.56386e-05
4.60565e-05
4.64714e-05
4.68939e-05
4.73146e-05
4.77425e-05
4.81684e-05
4.85938e-05
4.90247e-05
4.94556e-05
4.98922e-05
5.0328e-05
5.07623e-05
5.12029e-05
5.16429e-05
5.20891e-05
5.2534e-05
5.29779e-05
5.34278e-05
5.38772e-05
5.43327e-05
5.47871e-05
5.52402e-05
5.56995e-05
5.61583e-05
5.66232e-05
5.70869e-05
5.75495e-05
5.80181e-05
5.84863e-05
5.89604e-05
5.94336e-05
5.99054e-05
6.03835e-05
6.0861e-05
6.13447e-05
6.1827e-05
6.23085e-05
6.27956e-05
6.32828e-05
6.37754e-05
6.42676e-05
6.47578e-05
6.52551e-05
6.57507e-05
6.62538e-05
6.6754e-05
6.72552e-05
6.77599e-05
6.82672e-05
6.8777e-05
6.92904e-05
6.98047e-05
7.03161e-05
7.0835e-05
7.13523e-05
7.18766e-05
7.2399e-05
7.29209e-05
7.34482e-05
7.39756e-05
7.45087e-05
7.5041e-05
7.55718e-05
7.61089e-05
7.66453e-05
7.7188e-05
7.77294e-05
7.82698e-05
7.88161e-05
7.9362e-05
7.9914e-05
8.04648e-05
8.10145e-05
8.15702e-05
8.21255e-05
8.26868e-05
8.32471e-05
8.38061e-05
8.43713e-05
8.49358e-05
8.55066e-05
8.6076e-05
8.66446e-05
8.72189e-05
8.77932e-05
8.83729e-05
8.89522e-05
8.95295e-05
9.01139e-05
9.06966e-05
9.12869e-05
9.18742e-05
9.24625e-05
9.30543e-05
9.36487e-05
9.42456e-05
9.48461e-05
9.54475e-05
9.60461e-05
9.66521e-05
9.72565e-05
9.78679e-05
9.84774e-05
9.90864e-05
9.97009e-05
0.000100315
0.000100936
0.000101555
0.000102173
0.000102797
0.000103421
0.00010405
0.000104679
0.000105306
0.00010594
0.000106573
0.000107212
0.00010785
0.000108487
0.00010913
0.000109772
0.00011042
0.000111068
0.000111714
0.000112366
0.000113018
0.000113676
0.000114332
0.000114988
0.00011565
0.000116311
0.000116978
0.000117644
0.000118309
0.00011898
0.00011965
0.000120327
0.000121002
0.000121676
0.000122357
0.000123036
0.000123723
0.000124407
0.000125091
0.00012578
0.000126471
0.000127164
0.000127861
0.000128559
0.000129254
0.000129956
0.000130657
0.000131365
0.000132071
0.000132777
0.000133488
0.000134199
0.000134915
0.000135631
0.000136346
0.000137066
0.000137786
0.000138513
0.000139238
0.000139961
0.000140691
0.000141421
0.000142157
0.000142891
0.000143624
0.000144364
0.000145102
0.000145847
0.000146591
0.000147334
0.000148082
0.000148831
0.000149585
0.000150338
0.00015109
0.000151848
0.000152606
0.000153369
0.000154132
0.000154893
0.000155661
0.000156427
0.000157201
0.000157972
0.000158744
0.000159519
0.000160297
0.000161078
0.000161862
0.000162647
0.000163429
0.000164219
0.000165007
0.000165802
0.000166595
0.000167387
0.000168186
0.000168984
0.000169787
0.00017059
0.000171392
0.0001722
0.000173007
0.00017382
0.000174632
0.000175443
0.000176261
0.000177077
0.0001779
0.000178721
0.000179542
0.000180368
0.000181194
0.000182026
0.000182857
0.000183687
0.000184523
0.000185358
0.000186199
0.00018704
0.000187879
0.000188724
0.000189569
0.00019042
0.000191269
0.000192118
0.000192972
0.000193826
0.000194686
0.000195546
0.000196403
0.000197267
0.00019813
0.000199001
0.000199868
0.000200736
0.000201608
0.000202483
0.00020336
0.00020424
0.000205122
0.000206
0.000206887
0.000207771
0.000208662
0.000209552
0.000210441
0.000211336
0.00021223
0.000213131
0.00021403
0.000214928
0.000215832
0.000216736
0.000217646
0.000218554
0.000219462
0.000220375
0.000221289
0.000222208
0.000223126
0.000224043
0.000224966
0.000225888
0.000226816
0.000227744
0.00022867
0.000229602
0.000230534
0.000231472
0.000232409
0.000233345
0.000234286
0.000235228
0.000236174
0.000237121
0.000238065
0.000239017
0.000239967
0.000240924
0.000241879
0.000242834
0.000243793
0.000244755
0.000245719
0.000246687
0.000247655
0.000248621
0.000249594
0.000250566
0.000251545
0.000252521
0.000253497
0.000254479
0.000255461
0.000256448
0.000257435
0.00025842
0.000259411
0.000260402
0.000261399
0.000262395
0.000263389
0.00026439
0.00026539
0.000266396
0.000267402
0.000268406
0.000269416
0.000270425
0.000271441
0.000272455
0.000273469
0.000274488
0.000275507
0.000276532
0.000277556
0.000278579
0.000279607
0.000280636
0.00028167
0.000282703
0.000283736
0.000284773
0.000285811
0.000286855
0.000287898
0.000288939
0.000289987
0.000291033
0.000292087
0.000293138
0.00029419
0.000295246
0.000296304
0.000297364
0.000298428
0.000299494
0.000300556
0.000301625
0.000302694
0.000303769
0.000304842
0.000305914
0.000306993
0.000308071
0.000309155
0.000310238
0.000311319
0.000312407
0.000313494
0.000314588
0.00031568
0.000316771
0.000317868
0.000318965
0.000320068
0.000321169
0.00032227
0.000323376
0.000324483
0.000325595
0.000326706
0.000327815
0.000328931
0.000330047
0.000331168
0.000332289
0.000333408
0.000334533
0.000335658
0.000336789
0.000337919
0.000339047
0.000340182
0.000341315
0.000342456
0.000343595
0.000344734
0.000345876
0.000347021
0.000348169
0.00034932
0.000350473
0.000351622
0.000352779
0.000353934
0.000355096
0.000356256
0.000357416
0.000358582
0.000359747
0.000360918
0.000362088
0.000363257
0.000364432
0.000365606
0.000366787
0.000367966
0.000369144
0.000370328
0.000371512
0.000372702
0.000373891
0.000375078
0.000376272
0.000377465
0.000378665
0.000379863
0.00038106
0.000382263
0.000383465
0.000384674
0.000385881
0.000387087
0.0003883
0.000389512
0.00039073
0.000391947
0.000393162
0.000394384
0.000395605
0.000396832
0.000398059
0.000399284
0.000400515
0.000401745
0.000402983
0.000404217
0.000405453
0.000406692
0.000407934
0.000409178
0.000410426
0.000411674
0.00041292
0.000414173
0.000415425
0.000416684
0.000417941
0.000419197
0.000420459
0.00042172
0.000422988
0.000424254
0.00042552
0.000426791
0.000428062
0.000429339
0.000430615
0.00043189
0.00043317
0.000434451
0.000435737
0.000437022
0.000438306
0.000439596
0.000440886
0.000442182
0.000443476
0.00044477
0.000446069
0.000447368
0.000448673
0.000449977
0.00045128
0.000452589
0.000453898
0.000455212
0.000456525
0.000457837
0.000459156
0.000460473
0.000461798
0.000463119
0.000464442
0.000465768
0.000467097
0.000468428
0.000469763
0.000471099
0.000472432
0.000473772
0.000475111
0.000476457
0.000477801
0.000479144
0.000480493
0.000481842
0.000483197
0.00048455
0.000485903
0.000487261
0.000488619
0.000489983
0.000491346
0.000492708
0.000494076
0.000495443
0.000496817
0.000498189
0.00049956
0.000500938
0.000502314
0.000503697
0.000505079
0.000506459
0.000507846
0.000509232
0.000510624
0.000512016
0.000513405
0.000514801
0.000516197
0.000517599
0.000518999
0.000520398
0.000521803
0.000523209
0.000524619
0.000526029
0.000527438
0.000528853
0.000530266
0.000531687
0.000533106
0.000534525
0.000535948
0.000537373
0.000538801
0.000540232
0.000541664
0.000543094
0.000544531
0.000545966
0.000547408
0.000548848
0.000550288
0.000551734
0.000553179
0.00055463
0.00055608
0.000557529
0.000558984
0.000560439
0.000561899
0.000563359
0.000564817
0.000566281
0.000567745
0.000569215
0.000570684
0.000572152
0.000573625
0.000575099
0.000576578
0.000578056
0.000579533
0.000581016
0.000582499
0.000583988
0.000585475
0.000586962
0.000588454
0.000589946
0.000591444
0.000592941
0.000594437
0.000595939
0.00059744
0.000598948
0.000600453
0.000601959
0.000603469
0.000604982
0.000606497
0.000608015
0.000609534
0.000611051
0.000612575
0.000614097
0.000615627
0.000617154
0.000618681
0.000620214
0.000621746
0.000623284
0.000624822
0.000626358
0.0006279
0.000629441
0.000630989
0.000632536
0.000634081
0.000635633
0.000637184
0.000638741
0.000640297
0.000641851
0.000643412
0.000644973
0.000646539
0.000648104
0.000649668
0.000651239
0.000652808
0.000654384
0.000655959
0.000657532
0.000659112
0.000660691
0.000662276
0.00066386
0.000665443
0.000667032
0.000668621
0.000670215
0.000671809
0.000673401
0.000674999
0.000676597
0.000678201
0.000679803
0.000681406
0.000683012
0.000684621
0.000686232
0.000687847
0.000689463
0.000691076
0.000692697
0.000694316
0.000695941
0.000697565
0.000699189
0.000700818
0.000702447
0.000704081
0.000705715
0.000707348
0.000708986
0.000710624
0.000712269
0.000713912
0.000715554
0.000717202
0.000718849
0.000720503
0.000722155
0.000723806
0.000725464
0.00072712
0.000728783
0.000730445
0.000732106
0.000733773
0.000735439
0.000737111
0.000738782
0.000740452
0.000742128
0.000743804
0.000745485
0.000747166
0.000748845
0.000750531
0.000752215
0.000753907
0.000755596
0.000757286
0.000758979
0.000760675
0.000762374
0.000764076
0.000765779
0.000767479
0.000769187
0.000770893
0.000772606
0.000774317
0.000776027
0.000777743
0.00077946
0.000781181
0.000782902
0.000784622
0.000786348
0.000788073
0.000789804
0.000791534
0.000793263
0.000794998
0.000796733
0.000798474
0.000800213
0.000801951
0.000803696
0.00080544
0.00080719
0.000808939
0.000810687
0.00081244
0.000814194
0.000815953
0.000817711
0.000819468
0.000821232
0.000822994
0.000824763
0.000826531
0.000828297
0.00083007
0.000831842
0.00083362
0.000835397
0.000837173
0.000838955
0.000840736
0.000842524
0.00084431
0.000846096
0.000847886
0.000849678
0.000851473
0.000853272
0.000855071
0.000856868
0.000858672
0.000860475
0.000862284
0.000864092
0.000865899
0.000867711
0.000869524
0.000871342
0.000873159
0.000874975
0.000876798
0.000878619
0.000880447
0.000882274
0.000884099
0.000885931
0.000887762
0.000889599
0.000891435
0.00089327
0.000895111
0.000896951
0.000898798
0.000900643
0.000902488
0.000904338
0.000906188
0.000908044
0.000909898
0.000911752
0.000913611
0.000915471
0.000917336
0.0009192
0.000921063
0.000922932
0.0009248
0.000926676
0.000928548
0.000930422
0.000932299
0.000934178
0.00093606
0.000937946
0.000939833
0.000941716
0.000943608
0.000945497
0.000947394
0.000949289
0.000951183
0.000953082
0.000954982
0.000956887
0.000958792
0.000960695
0.000962604
0.000964513
0.000966428
0.000968342
0.000970255
0.000972173
0.000974091
0.000976016
0.000977939
0.000979861
0.000981789
0.000983716
0.00098565
0.000987583
0.000989514
0.000991451
0.000993388
0.000995331
0.000997273
0.000999214
0.00100116
0.00100311
0.00100506
0.00100701
0.00100896
0.00101092
0.00101287
0.00101483
0.0010168
0.00101875
0.00102072
0.00102268
0.00102466
0.00102663
0.0010286
0.00103057
0.00103254
0.00103452
0.00103651
0.00103849
0.00104047
0.00104246
0.00104444
0.00104644
0.00104843
0.00105042
0.00105241
0.00105441
0.00105641
0.00105841
0.00106041
0.00106242
0.00106442
0.00106643
0.00106845
0.00107045
0.00107247
0.00107448
0.0010765
0.00107852
0.00108054
0.00108257
0.00108459
0.00108662
0.00108865
0.00109068
0.00109271
0.00109475
0.00109679
0.00109882
0.00110086
0.0011029
0.00110495
0.001107
0.00110904
0.00111109
0.00111314
0.00111519
0.00111725
0.00111931
0.00112137
0.00112343
0.00112549
0.00112756
0.00112963
0.0011317
0.00113376
0.00113584
0.00113791
0.00113999
0.00114207
0.00114415
0.00114623
0.00114831
0.0011504
0.00115249
0.00115458
0.00115667
0.00115876
0.00116086
0.00116296
0.00116506
0.00116716
0.00116926
0.00117137
0.00117347
0.00117558
0.00117769
0.0011798
0.00118192
0.00118404
0.00118615
0.00118827
0.00119039
0.00119252
0.00119464
0.00119677
0.0011989
0.00120103
0.00120316
0.0012053
0.00120743
0.00120957
0.00121171
0.00121386
0.001216
0.00121814
0.00122029
0.00122244
0.0012246
0.00122675
0.0012289
0.00123106
0.00123322
0.00123538
0.00123755
0.00123972
0.00124188
0.00124405
0.00124622
0.0012484
0.00125057
0.00125275
0.00125493
0.00125711
0.00125929
0.00126148
0.00126366
0.00126585
0.00126804
0.00127023
0.00127243
0.00127462
0.00127682
0.00127902
0.00128122
0.00128342
0.00128563
0.00128783
0.00129004
0.00129225
0.00129447
0.00129668
0.0012989
0.00130111
0.00130334
0.00130556
0.00130778
0.00131001
0.00131223
0.00131446
0.0013167
0.00131893
0.00132116
0.0013234
0.00132564
0.00132788
0.00133012
0.00133237
0.00133461
0.00133686
0.00133911
0.00134137
0.00134362
0.00134588
0.00134813
0.0013504
0.00135266
0.00135492
0.00135719
0.00135945
0.00136173
0.001364
0.00136627
0.00136855
0.00137082
0.0013731
0.00137538
0.00137766
0.00137995
0.00138224
0.00138453
0.00138682
0.00138911
0.0013914
0.0013937
0.001396
0.0013983
0.0014006
0.0014029
0.0014052
0.00140752
0.00140982
0.00141213
0.00141445
0.00141676
0.00141908
0.0014214
0.00142371
0.00142604
0.00142836
0.00143069
0.00143302
0.00143534
0.00143768
0.00144001
0.00144235
0.00144468
0.00144702
0.00144936
0.00145171
0.00145405
0.0014564
0.00145875
0.0014611
0.00146345
0.00146581
0.00146817
0.00147053
0.00147288
0.00147525
0.00147761
0.00147998
0.00148235
0.00148471
0.00148709
0.00148946
0.00149184
0.00149422
0.00149659
0.00149897
0.00150136
0.00150374
0.00150613
0.00150852
0.00151091
0.0015133
0.0015157
0.00151809
0.00152049
0.00152289
0.00152529
0.0015277
0.0015301
0.00153251
0.00153492
0.00153733
0.00153974
0.00154216
0.00154457
0.00154699
0.00154941
0.00155184
0.00155426
0.00155668
0.00155911
0.00156154
0.00156398
0.00156641
0.00156885
0.00157128
0.00157373
0.00157617
0.00157861
0.00158106
0.0015835
0.00158595
0.0015884
0.00159086
0.00159332
0.00159577
0.00159823
0.00160069
0.00160316
0.00160562
0.00160808
0.00161055
0.00161302
0.0016155
0.00161797
0.00162044
0.00162292
0.0016254
0.00162789
0.00163037
0.00163285
0.00163534
0.00163783
0.00164032
0.00164281
0.00164531
0.0016478
0.0016503
0.0016528
0.0016553
0.00165781
0.00166031
0.00166282
0.00166533
0.00166784
0.00167035
0.00167287
0.00167539
0.00167791
0.00168043
0.00168295
0.00168547
0.001688
0.00169053
0.00169306
0.0016956
0.00169813
0.00170067
0.0017032
0.00170575
0.00170829
0.00171083
0.00171338
0.00171592
0.00171848
0.00172103
0.00172358
0.00172614
0.00172869
0.00173125
0.00173381
0.00173637
0.00173894
0.00174151
0.00174408
0.00174665
0.00174922
0.00175179
0.00175437
0.00175695
0.00175953
0.00176211
0.00176469
0.00176728
0.00176987
0.00177245
0.00177504
0.00177764
0.00178023
0.00178283
0.00178543
0.00178803
0.00179063
0.00179323
0.00179584
0.00179845
0.00180106
0.00180367
0.00180628
0.0018089
0.00181152
0.00181414
0.00181676
0.00181938
0.00182201
0.00182464
0.00182727
0.0018299
0.00183253
0.00183516
0.0018378
0.00184044
0.00184308
0.00184572
0.00184837
0.00185102
0.00185366
0.00185631
0.00185896
0.00186162
0.00186428
0.00186693
0.00186959
0.00187225
0.00187491
0.00187758
0.00188025
0.00188292
0.00188559
0.00188826
0.00189094
0.00189361
0.00189629
0.00189897
0.00190165
0.00190434
0.00190702
0.00190971
0.0019124
0.00191509
0.00191778
0.00192048
0.00192317
0.00192587
0.00192857
0.00193128
0.00193398
0.00193668
0.00193939
0.0019421
0.00194482
0.00194753
0.00195025
0.00195296
0.00195569
0.00195841
0.00196113
0.00196386
0.00196659
0.00196932
0.00197205
0.00197478
0.00197752
0.00198025
0.00198299
0.00198573
0.00198848
0.00199122
0.00199397
0.00199672
0.00199946
0.00200222
0.00200497
0.00200773
0.00201049
0.00201324
0.00201601
0.00201877
0.00202153
0.0020243
0.00202707
0.00202984
0.00203262
0.00203539
0.00203817
0.00204094
0.00204373
0.00204651
0.00204929
0.00205208
0.00205486
0.00205766
0.00206045
0.00206324
0.00206603
0.00206883
0.00207163
0.00207443
0.00207724
0.00208004
0.00208285
0.00208566
0.00208847
0.00209129
0.0020941
0.00209692
0.00209973
0.00210256
0.00210538
0.0021082
0.00211103
0.00211385
0.00211669
0.00211952
0.00212235
0.00212519
0.00212802
0.00213086
0.00213371
0.00213655
0.00213939
0.00214224
0.00214509
0.00214794
0.00215079
0.00215364
0.0021565
0.00215936
0.00216222
0.00216508
0.00216794
0.00217081
0.00217368
0.00217655
0.00217942
0.00218229
0.00218516
0.00218804
0.00219092
0.0021938
0.00219668
0.00219957
0.00220246
0.00220534
0.00220823
0.00221112
0.00221402
0.00221691
0.00221981
0.00222271
0.00222561
0.00222852
0.00223142
0.00223433
0.00223724
0.00224015
0.00224306
0.00224598
0.0022489
0.00225182
0.00225474
0.00225766
0.00226058
0.00226351
0.00226644
0.00226937
0.0022723
0.00227523
0.00227817
0.00228111
0.00228405
0.00228699
0.00228993
0.00229288
0.00229583
0.00229877
0.00230172
0.00230467
0.00230763
0.00231059
0.00231354
0.0023165
0.00231947
0.00232243
0.0023254
0.00232836
0.00233133
0.0023343
0.00233728
0.00234026
0.00234323
0.00234621
0.00234919
0.00235217
0.00235516
0.00235814
0.00236113
0.00236412
0.00236711
0.00237011
0.00237311
0.0023761
0.0023791
0.00238211
0.00238511
0.00238812
0.00239112
0.00239413
0.00239715
0.00240016
0.00240318
0.00240619
0.00240921
0.00241223
0.00241526
0.00241828
0.00242131
0.00242434
0.00242736
0.0024304
0.00243343
0.00243647
0.00243951
0.00244254
0.00244559
0.00244863
0.00245167
0.00245472
0.00245777
0.00246082
0.00246388
0.00246693
0.00246999
0.00247304
0.00247611
0.00247917
0.00248223
0.0024853
0.00248836
0.00249144
0.00249451
0.00249758
0.00250066
0.00250373
0.00250681
0.0025099
0.00251298
0.00251606
0.00251915
0.00252224
0.00252533
0.00252843
0.00253152
0.00253462
0.00253772
0.00254082
0.00254392
0.00254702
0.00255013
0.00255324
0.00255635
0.00255946
0.00256257
0.00256569
0.00256881
0.00257193
0.00257505
0.00257817
0.0025813
0.00258442
0.00258755
0.00259068
0.00259381
0.00259695
0.00260008
0.00260322
0.00260636
0.0026095
0.00261265
0.00261579
0.00261894
0.00262209
0.00262524
0.00262839
0.00263155
0.00263471
0.00263787
0.00264102
0.00264419
0.00264735
0.00265052
0.00265369
0.00265686
0.00266003
0.0026632
0.00266638
0.00266956
0.00267274
0.00267592
0.0026791
0.00268229
0.00268548
0.00268867
0.00269186
0.00269505
0.00269825
0.00270145
0.00270464
0.00270784
0.00271105
0.00271425
0.00271746
0.00272067
0.00272387
0.00272709
0.0027303
0.00273352
0.00273674
0.00273995
0.00274318
0.0027464
0.00274963
0.00275285
0.00275608
0.00275931
0.00276254
0.00276578
0.00276902
0.00277225
0.00277549
0.00277873
0.00278198
0.00278523
0.00278847
0.00279172
0.00279497
0.00279823
0.00280148
0.00280474
0.002808
0.00281126
0.00281452
0.00281779
0.00282106
0.00282432
0.0028276
0.00283087
0.00283415
0.00283742
0.0028407
0.00284398
0.00284726
0.00285055
0.00285383
0.00285712
0.00286041
0.0028637
0.002867
0.00287029
0.00287359
0.00287689
0.00288019
0.00288349
0.0028868
0.0028901
0.00289341
0.00289672
0.00290004
0.00290335
0.00290666
0.00290998
0.0029133
0.00291663
0.00291995
0.00292327
0.0029266
0.00292993
0.00293326
0.0029366
0.00293993
0.00294326
0.0029466
0.00294995
0.00295329
0.00295663
0.00295998
0.00296332
0.00296668
0.00297003
0.00297338
0.00297673
0.00298009
0.00298345
0.00298682
0.00299018
0.00299354
0.00299691
0.00300028
0.00300365
0.00300703
0.0030104
0.00301378
0.00301716
0.00302054
0.00302392
0.0030273
0.00303069
0.00303408
0.00303747
0.00304086
0.00304425
0.00304765
0.00305105
0.00305445
0.00305785
0.00306125
0.00306466
0.00306806
0.00307147
0.00307488
0.00307829
0.00308171
0.00308512
0.00308855
0.00309197
0.00309538
0.00309881
0.00310223
0.00310566
0.00310909
0.00311252
0.00311596
0.00311939
0.00312283
0.00312627
0.00312971
0.00313315
0.00313659
0.00314004
0.00314349
0.00314694
0.00315039
0.00315385
0.00315731
0.00316077
0.00316423
0.00316769
0.00317115
0.00317462
0.00317809
0.00318156
0.00318503
0.0031885
0.00319197
0.00319545
0.00319893
0.00320241
0.0032059
0.00320938
0.00321287
0.00321636
0.00321984
0.00322334
0.00322683
0.00323033
0.00323383
0.00323732
0.00324083
0.00324433
0.00324784
0.00325134
0.00325485
0.00325836
0.00326187
0.00326539
0.00326891
0.00327242
0.00327594
0.00327947
0.00328299
0.00328652
0.00329004
0.00329357
0.0032971
0.00330064
0.00330418
0.00330771
0.00331125
0.00331479
0.00331833
0.00332188
0.00332543
0.00332898
0.00333253
0.00333608
0.00333964
0.00334319
0.00334675
0.00335031
0.00335387
0.00335744
0.00336101
0.00336457
0.00336814
0.00337171
0.00337529
0.00337887
0.00338244
0.00338602
0.0033896
0.00339319
0.00339677
0.00340036
0.00340395
0.00340753
0.00341113
0.00341472
0.00341832
0.00342192
0.00342552
0.00342912
0.00343272
0.00343633
0.00343993
0.00344354
0.00344716
0.00345077
0.00345438
0.003458
0.00346162
0.00346524
0.00346886
0.00347248
0.00347611
0.00347974
0.00348337
0.003487
0.00349064
0.00349427
0.00349791
0.00350155
0.0035052
0.00350884
0.00351248
0.00351613
0.00351978
0.00352344
0.00352709
0.00353074
0.0035344
0.00353806
0.00354172
0.00354538
0.00354904
0.00355271
0.00355638
0.00356005
0.00356372
0.0035674
0.00357107
0.00357475
0.00357843
0.00358211
0.00358579
0.00358948
0.00359316
0.00359686
0.00360055
0.00360424
0.00360793
0.00361163
0.00361533
0.00361903
0.00362273
0.00362643
0.00363014
0.00363385
0.00363756
0.00364127
0.00364498
0.00364869
0.00365241
0.00365613
0.00365985
0.00366357
0.0036673
0.00367103
0.00367476
0.00367849
0.00368222
0.00368596
0.00368969
0.00369343
0.00369717
0.00370091
0.00370466
0.0037084
0.00371215
0.0037159
0.00371965
0.00372341
0.00372716
0.00373092
0.00373468
0.00373844
0.0037422
0.00374596
0.00374973
0.0037535
0.00375727
0.00376104
0.00376482
0.0037686
0.00377237
0.00377615
0.00377993
0.00378372
0.0037875
0.00379129
0.00379508
0.00379887
0.00380266
0.00380646
0.00381026
0.00381405
0.00381785
0.00382165
0.00382546
0.00382927
0.00383307
0.00383688
0.00384069
0.00384451
0.00384833
0.00385215
0.00385596
0.00385979
0.00386361
0.00386744
0.00387126
0.00387509
0.00387892
0.00388275
0.00388659
0.00389043
0.00389426
0.00389811
0.00390195
0.0039058
0.00390964
0.00391349
0.00391734
0.00392119
0.00392505
0.0039289
0.00393276
0.00393662
0.00394048
0.00394434
0.00394821
0.00395207
0.00395594
0.00395981
0.00396369
0.00396756
0.00397143
0.00397531
0.00397919
0.00398308
0.00398696
0.00399084
0.00399473
0.00399862
0.00400251
0.00400641
0.0040103
0.0040142
0.00401809
0.004022
0.0040259
0.0040298
0.00403371
0.00403762
0.00404153
0.00404544
0.00404936
0.00405327
0.00405719
0.00406111
0.00406504
0.00406896
0.00407288
0.00407681
0.00408074
0.00408467
0.00408861
0.00409254
0.00409648
0.00410042
0.00410436
0.0041083
0.00411224
0.00411619
0.00412014
0.00412409
0.00412804
0.00413199
0.00413595
0.00413991
0.00414387
0.00414783
0.00415179
0.00415576
0.00415972
0.0041637
0.00416767
0.00417164
0.00417561
0.00417959
0.00418357
0.00418755
0.00419153
0.00419551
0.0041995
0.00420349
0.00420748
0.00421147
0.00421546
0.00421946
0.00422345
0.00422746
0.00423146
0.00423546
0.00423947
0.00424347
0.00424748
0.0042515
0.00425551
0.00425952
0.00426354
0.00426756
0.00427158
0.0042756
0.00427962
0.00428365
0.00428768
0.00429171
0.00429574
0.00429977
0.00430381
0.00430785
0.00431189
0.00431593
0.00431997
0.00432401
0.00432806
0.00433211
0.00433616
0.00434021
0.00434427
0.00434832
0.00435238
0.00435644
0.0043605
0.00436456
0.00436863
0.0043727
0.00437677
0.00438084
0.00438491
0.00438899
0.00439307
0.00439714
0.00440122
0.0044053
0.00440939
0.00441348
0.00441756
0.00442165
0.00442574
0.00442984
0.00443394
0.00443804
0.00444213
0.00444624
0.00445034
0.00445445
0.00445855
0.00446266
0.00446677
0.00447089
0.004475
0.00447912
0.00448324
0.00448736
0.00449148
0.00449561
0.00449973
0.00450386
0.00450799
0.00451212
0.00451626
0.00452039
0.00452453
0.00452867
0.00453281
0.00453695
0.0045411
0.00454524
0.00454939
0.00455354
0.0045577
0.00456185
0.00456601
0.00457017
0.00457432
0.00457849
0.00458265
0.00458682
0.00459099
0.00459515
0.00459933
0.0046035
0.00460767
0.00461185
0.00461603
0.00462021
0.0046244
0.00462858
0.00463277
0.00463696
0.00464115
0.00464534
0.00464954
0.00465373
0.00465793
0.00466213
0.00466633
0.00467054
0.00467474
0.00467895
0.00468316
0.00468737
0.00469159
0.0046958
0.00470002
0.00470424
0.00470846
0.00471268
0.0047169
0.00472113
0.00472536
0.00472959
0.00473382
0.00473806
0.00474229
0.00474653
0.00475077
0.00475501
0.00475925
0.0047635
0.00476775
0.004772
0.00477625
0.0047805
0.00478475
0.00478901
0.00479327
0.00479753
0.00480179
0.00480606
0.00481032
0.00481459
0.00481886
0.00482313
0.0048274
0.00483168
0.00483596
0.00484024
0.00484452
0.0048488
0.00485309
0.00485738
0.00486167
0.00486596
0.00487025
0.00487455
0.00487884
0.00488314
0.00488744
0.00489174
0.00489605
0.00490035
0.00490466
0.00490897
0.00491328
0.0049176
0.00492191
0.00492623
0.00493055
0.00493487
0.00493919
0.00494352
0.00494785
0.00495218
0.0049565
0.00496084
0.00496517
0.00496951
0.00497385
0.00497819
0.00498253
0.00498687
0.00499122
0.00499557
0.00499991
0.00500427
0.00500862
0.00501298
0.00501733
0.00502169
0.00502605
0.00503041
0.00503478
0.00503915
0.00504352
0.00504788
0.00505226
0.00505663
0.00506101
0.00506539
0.00506976
0.00507415
0.00507853
0.00508292
0.00508731
0.00509169
0.00509609
0.00510048
0.00510488
0.00510927
0.00511367
0.00511807
0.00512247
0.00512688
0.00513129
0.00513569
0.0051401
0.00514451
0.00514893
0.00515335
0.00515776
0.00516218
0.0051666
0.00517103
0.00517545
0.00517988
0.00518431
0.00518874
0.00519317
0.00519761
0.00520204
0.00520648
0.00521092
0.00521536
0.00521981
0.00522425
0.0052287
0.00523315
0.0052376
0.00524206
0.00524651
0.00525097
0.00525543
0.00525989
0.00526435
0.00526882
0.00527328
0.00527775
0.00528222
0.0052867
0.00529117
0.00529565
0.00530013
0.00530461
0.00530909
0.00531358
0.00531806
0.00532255
0.00532704
0.00533153
0.00533602
0.00534052
0.00534502
0.00534951
0.00535402
0.00535852
0.00536302
0.00536753
0.00537204
0.00537655
0.00538106
0.00538557
0.00539009
0.00539461
0.00539913
0.00540365
0.00540817
0.0054127
0.00541723
0.00542176
0.00542629
0.00543082
0.00543535
0.00543989
0.00544443
0.00544897
0.00545351
0.00545806
0.0054626
0.00546715
0.0054717
0.00547626
0.00548081
0.00548537
0.00548992
0.00549449
0.00549905
0.00550361
0.00550817
0.00551274
0.00551731
0.00552188
0.00552645
0.00553103
0.00553561
0.00554019
0.00554477
0.00554935
0.00555393
0.00555852
0.00556311
0.0055677
0.00557229
0.00557688
0.00558148
0.00558608
0.00559068
0.00559528
0.00559988
0.00560449
0.0056091
0.0056137
0.00561831
0.00562293
0.00562754
0.00563216
0.00563678
0.00564139
0.00564602
0.00565064
0.00565527
0.00565989
0.00566452
0.00566915
0.00567378
0.00567842
0.00568306
0.0056877
0.00569234
0.00569698
0.00570163
0.00570627
0.00571092
0.00571557
0.00572023
0.00572488
0.00572954
0.0057342
0.00573885
0.00574352
0.00574818
0.00575285
0.00575752
0.00576218
0.00576686
0.00577153
0.00577621
0.00578088
0.00578556
0.00579024
0.00579492
0.00579961
0.0058043
0.00580898
0.00581367
0.00581837
0.00582306
0.00582776
0.00583245
0.00583715
0.00584185
0.00584656
0.00585127
0.00585597
0.00586068
0.00586539
0.00587011
0.00587482
0.00587953
0.00588425
0.00588897
0.0058937
0.00589842
0.00590314
0.00590787
0.0059126
0.00591733
0.00592207
0.00592681
0.00593154
0.00593628
0.00594102
0.00594577
0.00595052
0.00595526
0.00596001
0.00596476
0.00596952
0.00597427
0.00597903
0.00598379
0.00598854
0.00599331
0.00599807
0.00600284
0.00600761
0.00601238
0.00601715
0.00602192
0.0060267
0.00603147
0.00603625
0.00604104
0.00604582
0.0060506
0.00605539
0.00606018
0.00606497
0.00606976
0.00607455
0.00607935
0.00608415
0.00608895
0.00609375
0.00609855
0.00610336
0.00610817
0.00611298
0.00611779
0.0061226
0.00612741
0.00613223
0.00613705
0.00614187
0.0061467
0.00615152
0.00615635
0.00616118
0.00616601
0.00617084
0.00617567
0.00618051
0.00618535
0.00619019
0.00619503
0.00619988
0.00620472
0.00620957
0.00621442
0.00621927
0.00622412
0.00622898
0.00623383
0.0062387
0.00624356
0.00624842
0.00625328
0.00625815
0.00626302
0.00626789
0.00627276
0.00627763