/*--------------------------------*- C++ -*----------------------------------*\
| =========                 |                                                 |
| \\      /  F ield         | OpenFOAM: The Open Source CFD Toolbox           |
|  \\    /   O peration     | Version:  2206                                  |
|   \\  /    A nd           | Website:  www.openfoam.com                      |
|    \\/     M anipulation  |                                                 |
\*---------------------------------------------------------------------------*/
FoamFile
{
    version     2.0;
    format      ascii;
    arch        "LSB;label=32;scalar=64";
    class       volVectorField;
    location    "560";
    object      U;
}
// * * * * * * * * * * * * * * * * * * * * * * * * * * * * * * * * * * * * * //

dimensions      [0 1 -1 0 0 0 0];

internalField   nonuniform List<vector> 
100000
(
(-3.85494e-12 6.47765e-06 1.64279e-12)
(-3.7955e-12 1.20937e-05 9.26327e-14)
(-7.80438e-12 2.20447e-05 1.45014e-13)
(-1.42388e-11 3.27301e-05 1.53424e-13)
(-1.76668e-11 4.24174e-05 8.93922e-14)
(-1.67914e-11 4.49102e-05 7.4632e-14)
(-2.05524e-11 5.482e-05 1.42004e-13)
(-2.62195e-11 6.56474e-05 1.48133e-13)
(-3.12239e-11 7.64564e-05 1.49607e-13)
(-3.5814e-11 8.62302e-05 8.43027e-14)
(-3.39113e-11 8.86572e-05 7.84366e-14)
(-3.83449e-11 9.85405e-05 1.43146e-13)
(-4.35824e-11 0.000109372 1.48728e-13)
(-4.88154e-11 0.00012019 1.47932e-13)
(-5.33014e-11 0.000129988 8.35528e-14)
(-5.13376e-11 0.000132403 7.88896e-14)
(-5.59743e-11 0.000142273 1.44436e-13)
(-6.08509e-11 0.000153105 1.48247e-13)
(-6.6609e-11 0.000163927 1.47872e-13)
(-7.03785e-11 0.000173735 8.24095e-14)
(-6.93263e-11 0.000176146 8.00226e-14)
(-7.28203e-11 0.00018601 1.44156e-13)
(-7.9108e-11 0.000196849 1.49845e-13)
(-8.32348e-11 0.000207767 1.51459e-13)
(-8.9549e-11 0.000218598 1.48125e-13)
(-9.30693e-11 0.000228414 8.36668e-14)
(-9.19495e-11 0.000230823 8.03016e-14)
(-9.5733e-11 0.000240681 1.46562e-13)
(-1.01481e-10 0.000251512 1.49567e-13)
(-1.0638e-10 0.000262337 1.48433e-13)
(-1.11063e-10 0.000272157 8.26649e-14)
(-1.08985e-10 0.000274564 8.09126e-14)
(-1.13567e-10 0.00028442 1.46076e-13)
(-1.18651e-10 0.00029525 1.49744e-13)
(-1.24095e-10 0.000306076 1.47804e-13)
(-1.28323e-10 0.000315898 8.26742e-14)
(-1.26627e-10 0.000318305 8.07524e-14)
(-1.30896e-10 0.000328158 1.46222e-13)
(-1.36237e-10 0.000338989 1.49456e-13)
(-1.41465e-10 0.000349815 1.47684e-13)
(-1.45868e-10 0.000359639 8.23901e-14)
(-1.44032e-10 0.000362046 8.08743e-14)
(-1.48418e-10 0.000371897 1.4613e-13)
(-1.53663e-10 0.000382727 1.49405e-13)
(-1.58965e-10 0.000393554 1.47446e-13)
(-1.63306e-10 0.00040338 8.22906e-14)
(-1.61521e-10 0.000405786 8.08659e-14)
(-1.65872e-10 0.000415636 1.46146e-13)
(-1.7114e-10 0.000426466 1.49287e-13)
(-1.76427e-10 0.000437293 1.47326e-13)
(-1.80772e-10 0.00044712 8.21476e-14)
(-1.78994e-10 0.000449526 8.09184e-14)
(-1.8333e-10 0.000459375 1.46103e-13)
(-1.88622e-10 0.000470205 1.49247e-13)
(-1.93873e-10 0.000481032 1.47169e-13)
(-1.98264e-10 0.000490861 8.2093e-14)
(-1.96428e-10 0.000493266 8.08932e-14)
(-2.00839e-10 0.000503115 1.46143e-13)
(-2.06038e-10 0.000513944 1.49127e-13)
(-2.114e-10 0.000524771 1.4714e-13)
(-2.15654e-10 0.000534601 8.19297e-14)
(-2.13986e-10 0.000537006 8.10108e-14)
(-2.18197e-10 0.000546854 1.46013e-13)
(-2.23636e-10 0.000557684 1.49221e-13)
(-2.28709e-10 0.000568511 1.46883e-13)
(-2.33308e-10 0.000578341 8.20688e-14)
(-2.31228e-10 0.000580746 8.07791e-14)
(-2.35934e-10 0.000590593 1.46299e-13)
(-2.40779e-10 0.000601423 1.48826e-13)
(-2.46563e-10 0.00061225 1.47231e-13)
(-2.50309e-10 0.000622081 8.1507e-14)
(-2.49251e-10 0.000624486 8.1401e-14)
(-2.52735e-10 0.000634333 1.45603e-13)
(-2.59047e-10 0.00064517 1.50364e-13)
(-2.63157e-10 0.000656089 1.50874e-13)
(-2.69475e-10 0.000666923 1.46825e-13)
(-2.72972e-10 0.000676755 8.25353e-14)
(-2.71886e-10 0.000679161 8.08594e-14)
(-2.75648e-10 0.000689007 1.46855e-13)
(-2.81415e-10 0.000699836 1.49208e-13)
(-2.86285e-10 0.000710663 1.47473e-13)
(-2.90982e-10 0.000720495 8.18357e-14)
(-2.88899e-10 0.000722901 8.13813e-14)
(-2.93491e-10 0.000732746 1.46383e-13)
(-2.98566e-10 0.000743575 1.49517e-13)
(-3.04012e-10 0.000754403 1.47096e-13)
(-3.08228e-10 0.000764235 8.20349e-14)
(-3.06548e-10 0.000766641 8.11676e-14)
(-3.10805e-10 0.000776485 1.46525e-13)
(-3.1616e-10 0.000787315 1.49326e-13)
(-3.21369e-10 0.000798142 1.47146e-13)
(-3.25784e-10 0.000807975 8.18937e-14)
(-3.23936e-10 0.00081038 8.12394e-14)
(-3.28338e-10 0.000820225 1.46437e-13)
(-3.33567e-10 0.000831054 1.49331e-13)
(-3.38886e-10 0.000841882 1.4705e-13)
(-3.43202e-10 0.000851715 8.1879e-14)
(-3.41446e-10 0.00085412 8.12175e-14)
(-3.45762e-10 0.000863964 1.46421e-13)
(-3.51074e-10 0.000874794 1.49292e-13)
(-3.56309e-10 0.000885621 1.46988e-13)
(-3.60711e-10 0.000895454 8.18595e-14)
(-3.58864e-10 0.00089786 8.11863e-14)
(-3.63282e-10 0.000907704 1.46437e-13)
(-3.68479e-10 0.000918533 1.49207e-13)
(-3.73844e-10 0.000929361 1.47001e-13)
(-3.78095e-10 0.000939194 8.1749e-14)
(-3.76425e-10 0.000941599 8.12767e-14)
(-3.80635e-10 0.000951443 1.46303e-13)
(-3.86078e-10 0.000962272 1.49315e-13)
(-3.9115e-10 0.0009731 1.46789e-13)
(-3.95749e-10 0.000982934 8.19219e-14)
(-3.93666e-10 0.000985339 8.10283e-14)
(-3.98371e-10 0.000995183 1.46579e-13)
(-4.03221e-10 0.00100601 1.48932e-13)
(-4.09002e-10 0.00101684 1.47173e-13)
(-4.12752e-10 0.00102667 8.13849e-14)
(-4.11686e-10 0.00102908 8.16404e-14)
(-4.15174e-10 0.00103892 1.45867e-13)
(-4.21486e-10 0.00104976 1.50484e-13)
(-4.25597e-10 0.00106068 1.50799e-13)
(-4.31913e-10 0.00107151 1.46618e-13)
(-4.35409e-10 0.00108135 8.23399e-14)
(-4.34326e-10 0.00108375 8.09845e-14)
(-4.38086e-10 0.0010936 1.46941e-13)
(-4.43855e-10 0.00110443 1.49163e-13)
(-4.48723e-10 0.00111525 1.47299e-13)
(-4.5342e-10 0.00112509 8.16733e-14)
(-4.51338e-10 0.00112749 8.15015e-14)
(-4.55929e-10 0.00113734 1.46478e-13)
(-4.61006e-10 0.00114816 1.49493e-13)
(-4.66448e-10 0.00115899 1.46953e-13)
(-4.70667e-10 0.00116883 8.18986e-14)
(-4.68984e-10 0.00117123 8.12823e-14)
(-4.73245e-10 0.00118108 1.46631e-13)
(-4.78596e-10 0.0011919 1.49315e-13)
(-4.83811e-10 0.00120273 1.47037e-13)
(-4.88217e-10 0.00121257 8.17703e-14)
(-4.8638e-10 0.00121497 8.13609e-14)
(-4.90768e-10 0.00122481 1.46537e-13)
(-4.96014e-10 0.00123564 1.49348e-13)
(-5.01313e-10 0.00124647 1.46948e-13)
(-5.05652e-10 0.00125631 8.17922e-14)
(-5.03868e-10 0.00125871 8.13136e-14)
(-5.08217e-10 0.00126855 1.46553e-13)
(-5.13491e-10 0.00127938 1.49288e-13)
(-5.18771e-10 0.00129021 1.46946e-13)
(-5.23118e-10 0.00130005 8.17404e-14)
(-5.21337e-10 0.00130245 8.13365e-14)
(-5.25674e-10 0.00131229 1.46503e-13)
(-5.3097e-10 0.00132312 1.49295e-13)
(-5.36218e-10 0.00133395 1.46879e-13)
(-5.40608e-10 0.00134379 8.17599e-14)
(-5.38771e-10 0.00134619 8.12844e-14)
(-5.4318e-10 0.00135603 1.46539e-13)
(-5.48386e-10 0.00136686 1.49209e-13)
(-5.53743e-10 0.00137769 1.46922e-13)
(-5.58e-10 0.00138753 8.16544e-14)
(-5.56325e-10 0.00138993 8.13808e-14)
(-5.60539e-10 0.00139977 1.46401e-13)
(-5.65979e-10 0.0014106 1.49333e-13)
(-5.71054e-10 0.00142143 1.46721e-13)
(-5.7565e-10 0.00143126 8.18443e-14)
(-5.73569e-10 0.00143367 8.11261e-14)
(-5.78271e-10 0.00144351 1.46684e-13)
(-5.83125e-10 0.00145434 1.48954e-13)
(-5.88903e-10 0.00146517 1.47123e-13)
(-5.92655e-10 0.001475 8.13139e-14)
(-5.91586e-10 0.00147741 8.17411e-14)
(-5.95075e-10 0.00148725 1.45967e-13)
(-6.01388e-10 0.00149809 1.50518e-13)
(-6.05499e-10 0.00150901 1.50738e-13)
(-6.11814e-10 0.00151984 1.46496e-13)
(-6.15309e-10 0.00152968 8.22309e-14)
(-6.14229e-10 0.00153208 8.10346e-14)
(-6.17987e-10 0.00154193 1.4696e-13)
(-6.23758e-10 0.00155276 1.49119e-13)
(-6.28622e-10 0.00156358 1.47187e-13)
(-6.33321e-10 0.00157342 8.15804e-14)
(-6.31238e-10 0.00157582 8.15487e-14)
(-6.35832e-10 0.00158567 1.46507e-13)
(-6.40906e-10 0.00159649 1.49456e-13)
(-6.46351e-10 0.00160732 1.4686e-13)
(-6.50566e-10 0.00161716 8.18119e-14)
(-6.48888e-10 0.00161956 8.1335e-14)
(-6.53143e-10 0.00162941 1.46661e-13)
(-6.58501e-10 0.00164023 1.49293e-13)
(-6.63707e-10 0.00165106 1.46951e-13)
(-6.68122e-10 0.0016609 8.17008e-14)
(-6.66275e-10 0.0016633 8.14048e-14)
(-6.70676e-10 0.00167314 1.46583e-13)
(-6.75907e-10 0.00168397 1.49321e-13)
(-6.81224e-10 0.0016948 1.4689e-13)
(-6.8554e-10 0.00170464 8.17117e-14)
(-6.83784e-10 0.00170704 8.13812e-14)
(-6.881e-10 0.00171688 1.46575e-13)
(-6.93414e-10 0.00172771 1.49302e-13)
(-6.98647e-10 0.00173854 1.46858e-13)
(-7.03049e-10 0.00174838 8.17146e-14)
(-7.01202e-10 0.00175078 8.13477e-14)
(-7.05619e-10 0.00176062 1.46598e-13)
(-7.10819e-10 0.00177145 1.49234e-13)
(-7.16181e-10 0.00178228 1.46898e-13)
(-7.20434e-10 0.00179212 8.16235e-14)
(-7.18761e-10 0.00179452 8.14366e-14)
(-7.22973e-10 0.00180436 1.46468e-13)
(-7.28416e-10 0.00181519 1.49357e-13)
(-7.33489e-10 0.00182602 1.46707e-13)
(-7.38086e-10 0.00183586 8.18148e-14)
(-7.36003e-10 0.00183826 8.11845e-14)
(-7.40706e-10 0.0018481 1.46751e-13)
(-7.45561e-10 0.00185893 1.48984e-13)
(-7.51338e-10 0.00186976 1.47115e-13)
(-7.55091e-10 0.0018796 8.12891e-14)
(-7.54021e-10 0.001882 8.17994e-14)
(-7.5751e-10 0.00189184 1.46035e-13)
(-7.63824e-10 0.00190268 1.50551e-13)
(-7.67934e-10 0.0019136 1.50725e-13)
(-7.7425e-10 0.00192443 1.4645e-13)
(-7.77744e-10 0.00193427 8.21861e-14)
(-7.76664e-10 0.00193668 8.10679e-14)
(-7.80422e-10 0.00194652 1.46987e-13)
(-7.86193e-10 0.00195735 1.49111e-13)
(-7.91058e-10 0.00196817 1.47148e-13)
(-7.95756e-10 0.00197801 8.15402e-14)
(-7.93674e-10 0.00198041 8.15836e-14)
(-7.98267e-10 0.00199026 1.46536e-13)
(-8.03343e-10 0.00200108 1.49456e-13)
(-8.08785e-10 0.00201191 1.46825e-13)
(-8.13002e-10 0.00202175 8.17789e-14)
(-8.11321e-10 0.00202415 8.1367e-14)
(-8.15581e-10 0.002034 1.46697e-13)
(-8.20933e-10 0.00204482 1.49292e-13)
(-8.26146e-10 0.00205565 1.46927e-13)
(-8.30553e-10 0.00206549 8.16641e-14)
(-8.28716e-10 0.00206789 8.14467e-14)
(-8.33104e-10 0.00207774 1.4661e-13)
(-8.38351e-10 0.00208856 1.49337e-13)
(-8.43649e-10 0.00209939 1.46856e-13)
(-8.47988e-10 0.00210923 8.16977e-14)
(-8.46204e-10 0.00211163 8.14007e-14)
(-8.50552e-10 0.00212147 1.46632e-13)
(-8.55828e-10 0.0021323 1.49288e-13)
(-8.61107e-10 0.00214313 1.46868e-13)
(-8.65454e-10 0.00215297 8.16568e-14)
(-8.63673e-10 0.00215537 8.14244e-14)
(-8.6801e-10 0.00216521 1.46589e-13)
(-8.73306e-10 0.00217604 1.49305e-13)
(-8.78554e-10 0.00218687 1.46815e-13)
(-8.82944e-10 0.00219671 8.16858e-14)
(-8.81107e-10 0.00219911 8.13732e-14)
(-8.85515e-10 0.00220895 1.46629e-13)
(-8.90723e-10 0.00221978 1.49229e-13)
(-8.96078e-10 0.00223061 1.46871e-13)
(-9.00336e-10 0.00224045 8.15893e-14)
(-8.9866e-10 0.00224285 8.14699e-14)
(-9.02874e-10 0.00225269 1.46496e-13)
(-9.08315e-10 0.00226352 1.4936e-13)
(-9.1339e-10 0.00227435 1.4668e-13)
(-9.17985e-10 0.00228419 8.17875e-14)
(-9.15904e-10 0.00228659 8.12152e-14)
(-9.20605e-10 0.00229643 1.46783e-13)
(-9.25462e-10 0.00230726 1.48988e-13)
(-9.31238e-10 0.00231809 1.47095e-13)
(-9.34991e-10 0.00232793 8.12626e-14)
(-9.3392e-10 0.00233033 8.18328e-14)
(-9.3741e-10 0.00234017 1.46066e-13)
(-9.43724e-10 0.00235101 1.5056e-13)
(-9.47834e-10 0.00236193 1.50701e-13)
(-9.54149e-10 0.00237276 1.46404e-13)
(-9.57643e-10 0.0023826 8.21453e-14)
(-9.56565e-10 0.00238501 8.10845e-14)
(-9.60322e-10 0.00239485 1.4699e-13)
(-9.66094e-10 0.00240568 1.49093e-13)
(-9.70956e-10 0.0024165 1.47104e-13)
(-9.75656e-10 0.00242634 8.15049e-14)
(-9.73573e-10 0.00242875 8.15989e-14)
(-9.78168e-10 0.00243859 1.46545e-13)
(-9.83242e-10 0.00244941 1.49438e-13)
(-9.88686e-10 0.00246024 1.46788e-13)
(-9.929e-10 0.00247008 8.17434e-14)
(-9.91223e-10 0.00247249 8.1387e-14)
(-9.95478e-10 0.00248233 1.46703e-13)
(-1.00084e-09 0.00249315 1.49283e-13)
(-1.00604e-09 0.00250398 1.46889e-13)
(-1.01046e-09 0.00251382 8.16389e-14)
(-1.00861e-09 0.00251622 8.14585e-14)
(-1.01301e-09 0.00252607 1.4663e-13)
(-1.01824e-09 0.00253689 1.49318e-13)
(-1.02356e-09 0.00254772 1.46837e-13)
(-1.02788e-09 0.00255756 8.16563e-14)
(-1.02612e-09 0.00255996 8.14359e-14)
(-1.03044e-09 0.0025698 1.46627e-13)
(-1.03575e-09 0.00258063 1.49305e-13)
(-1.04098e-09 0.00259146 1.46813e-13)
(-1.04538e-09 0.0026013 8.16648e-14)
(-1.04354e-09 0.0026037 8.14038e-14)
(-1.04795e-09 0.00261354 1.46653e-13)
(-1.05315e-09 0.00262437 1.49243e-13)
(-1.05852e-09 0.0026352 1.46861e-13)
(-1.06277e-09 0.00264504 8.15792e-14)
(-1.0611e-09 0.00264744 8.14935e-14)
(-1.06531e-09 0.00265728 1.46527e-13)
(-1.07075e-09 0.00266811 1.49371e-13)
(-1.07582e-09 0.00267894 1.46678e-13)
(-1.08042e-09 0.00268878 8.17756e-14)
(-1.07834e-09 0.00269118 8.12421e-14)
(-1.08304e-09 0.00270102 1.46814e-13)
(-1.0879e-09 0.00271185 1.49003e-13)
(-1.09367e-09 0.00272268 1.47093e-13)
(-1.09743e-09 0.00273252 8.12534e-14)
(-1.09635e-09 0.00273492 8.18593e-14)
(-1.09984e-09 0.00274476 1.46098e-13)
(-1.10616e-09 0.0027556 1.50577e-13)
(-1.11027e-09 0.00276652 1.50697e-13)
(-1.11658e-09 0.00277735 1.46385e-13)
(-1.12008e-09 0.00278719 8.21268e-14)
(-1.119e-09 0.0027896 8.11003e-14)
(-1.12276e-09 0.00279944 1.47005e-13)
(-1.12853e-09 0.00281027 1.49091e-13)
(-1.13339e-09 0.00282109 1.47088e-13)
(-1.13809e-09 0.00283093 8.14874e-14)
(-1.13601e-09 0.00283334 8.16164e-14)
(-1.1406e-09 0.00284318 1.46559e-13)
(-1.14568e-09 0.00285401 1.49441e-13)
(-1.15112e-09 0.00286483 1.46773e-13)
(-1.15534e-09 0.00287467 8.17306e-14)
(-1.15366e-09 0.00287708 8.14015e-14)
(-1.15792e-09 0.00288692 1.46724e-13)
(-1.16327e-09 0.00289774 1.49282e-13)
(-1.16848e-09 0.00290857 1.46882e-13)
(-1.17289e-09 0.00291841 8.162e-14)
(-1.17105e-09 0.00292082 8.14826e-14)
(-1.17544e-09 0.00293066 1.46641e-13)
(-1.18069e-09 0.00294148 1.49332e-13)
(-1.18598e-09 0.00295231 1.46816e-13)
(-1.19032e-09 0.00296215 8.16578e-14)
(-1.18854e-09 0.00296456 8.14377e-14)
(-1.19289e-09 0.0029744 1.46666e-13)
(-1.19816e-09 0.00298522 1.49288e-13)
(-1.20344e-09 0.00299605 1.46835e-13)
(-1.20779e-09 0.00300589 8.16206e-14)
(-1.20601e-09 0.00300829 8.14626e-14)
(-1.21034e-09 0.00301813 1.46626e-13)
(-1.21564e-09 0.00302896 1.4931e-13)
(-1.22089e-09 0.00303979 1.46787e-13)
(-1.22528e-09 0.00304963 8.16533e-14)
(-1.22344e-09 0.00305203 8.14123e-14)
(-1.22785e-09 0.00306187 1.46669e-13)
(-1.23306e-09 0.0030727 1.49237e-13)
(-1.23841e-09 0.00308353 1.46848e-13)
(-1.24267e-09 0.00309337 8.15601e-14)
(-1.24099e-09 0.00309577 8.15102e-14)
(-1.24521e-09 0.00310561 1.46538e-13)
(-1.25065e-09 0.00311644 1.49372e-13)
(-1.25572e-09 0.00312727 1.46662e-13)
(-1.26032e-09 0.00313711 8.17617e-14)
(-1.25824e-09 0.00313951 8.12559e-14)
(-1.26294e-09 0.00314935 1.46829e-13)
(-1.2678e-09 0.00316018 1.49003e-13)
(-1.27357e-09 0.00317101 1.47081e-13)
(-1.27733e-09 0.00318085 8.12388e-14)
(-1.27625e-09 0.00318325 8.18756e-14)
(-1.27974e-09 0.00319309 1.46113e-13)
(-1.28606e-09 0.00320393 1.5058e-13)
(-1.29017e-09 0.00321485 1.50683e-13)
(-1.29648e-09 0.00322568 1.46361e-13)
(-1.29998e-09 0.00323552 8.21048e-14)
(-1.2989e-09 0.00323793 8.11082e-14)
(-1.30266e-09 0.00324777 1.47005e-13)
(-1.30843e-09 0.0032586 1.4908e-13)
(-1.31329e-09 0.00326942 1.47064e-13)
(-1.31799e-09 0.00327926 8.14688e-14)
(-1.31591e-09 0.00328167 8.16229e-14)
(-1.3205e-09 0.00329151 1.46563e-13)
(-1.32558e-09 0.00330234 1.49429e-13)
(-1.33102e-09 0.00331316 1.46753e-13)
(-1.33523e-09 0.003323 8.17101e-14)
(-1.33356e-09 0.00332541 8.14125e-14)
(-1.33781e-09 0.00333525 1.46724e-13)
(-1.34317e-09 0.00334608 1.49278e-13)
(-1.34838e-09 0.0033569 1.46858e-13)
(-1.35279e-09 0.00336674 8.16085e-14)
(-1.35094e-09 0.00336915 8.14849e-14)
(-1.35535e-09 0.00337899 1.46653e-13)
(-1.36058e-09 0.00338981 1.49316e-13)
(-1.36589e-09 0.00340064 1.4681e-13)
(-1.37021e-09 0.00341048 8.16286e-14)
(-1.36845e-09 0.00341289 8.14633e-14)
(-1.37277e-09 0.00342273 1.46653e-13)
(-1.37808e-09 0.00343355 1.49306e-13)
(-1.38332e-09 0.00344438 1.46791e-13)
(-1.38772e-09 0.00345422 8.16397e-14)
(-1.38587e-09 0.00345662 8.14322e-14)
(-1.39029e-09 0.00346646 1.46682e-13)
(-1.39549e-09 0.00347729 1.49248e-13)
(-1.40085e-09 0.00348812 1.46842e-13)
(-1.4051e-09 0.00349796 8.15564e-14)
(-1.40343e-09 0.00350036 8.15228e-14)
(-1.40764e-09 0.0035102 1.46558e-13)
(-1.41309e-09 0.00352103 1.49379e-13)
(-1.41816e-09 0.00353186 1.46662e-13)
(-1.42275e-09 0.0035417 8.17554e-14)
(-1.42067e-09 0.0035441 8.12719e-14)
(-1.42537e-09 0.00355394 1.46846e-13)
(-1.43023e-09 0.00356477 1.49013e-13)
(-1.43601e-09 0.0035756 1.47081e-13)
(-1.43976e-09 0.00358544 8.12346e-14)
(-1.43869e-09 0.00358784 8.18908e-14)
(-1.44218e-09 0.00359768 1.46132e-13)
(-1.44849e-09 0.00360852 1.5059e-13)
(-1.4526e-09 0.00361944 1.50683e-13)
(-1.45892e-09 0.00363027 1.46351e-13)
(-1.46241e-09 0.00364011 8.20953e-14)
(-1.46133e-09 0.00364252 8.11176e-14)
(-1.46509e-09 0.00365236 1.47014e-13)
(-1.47086e-09 0.00366319 1.4908e-13)
(-1.47573e-09 0.00367401 1.47056e-13)
(-1.48042e-09 0.00368385 8.14591e-14)
(-1.47834e-09 0.00368626 8.1634e-14)
(-1.48294e-09 0.0036961 1.46572e-13)
(-1.48801e-09 0.00370693 1.49432e-13)
(-1.49345e-09 0.00371775 1.46745e-13)
(-1.49767e-09 0.00372759 8.17043e-14)
(-1.49599e-09 0.00373 8.14203e-14)
(-1.50025e-09 0.00373984 1.46738e-13)
(-1.5056e-09 0.00375067 1.49277e-13)
(-1.51081e-09 0.00376149 1.46857e-13)
(-1.51522e-09 0.00377133 8.15959e-14)
(-1.51338e-09 0.00377374 8.15022e-14)
(-1.51777e-09 0.00378358 1.46657e-13)
(-1.52302e-09 0.00379441 1.49329e-13)
(-1.52832e-09 0.00380523 1.46795e-13)
(-1.53266e-09 0.00381507 8.16357e-14)
(-1.53087e-09 0.00381748 8.14583e-14)
(-1.53522e-09 0.00382732 1.46685e-13)
(-1.5405e-09 0.00383814 1.49288e-13)
(-1.54578e-09 0.00384897 1.46816e-13)
(-1.55012e-09 0.00385881 8.16005e-14)
(-1.54834e-09 0.00386122 8.14839e-14)
(-1.55268e-09 0.00387106 1.46647e-13)
(-1.55797e-09 0.00388188 1.49312e-13)
(-1.56322e-09 0.00389271 1.46771e-13)
(-1.56761e-09 0.00390255 8.1635e-14)
(-1.56577e-09 0.00390496 8.14344e-14)
(-1.57018e-09 0.0039148 1.46692e-13)
(-1.57539e-09 0.00392562 1.49242e-13)
(-1.58075e-09 0.00393645 1.46835e-13)
(-1.585e-09 0.00394629 8.15436e-14)
(-1.58333e-09 0.00394869 8.1533e-14)
(-1.58754e-09 0.00395853 1.46562e-13)
(-1.59298e-09 0.00396936 1.49379e-13)
(-1.59806e-09 0.00398019 1.46652e-13)
(-1.60265e-09 0.00399003 8.17469e-14)
(-1.60057e-09 0.00399243 8.12793e-14)
(-1.60527e-09 0.00400227 1.46855e-13)
(-1.61013e-09 0.0040131 1.49012e-13)
(-1.61591e-09 0.00402393 1.47074e-13)
(-1.61966e-09 0.00403377 8.12251e-14)
(-1.61859e-09 0.00403617 8.19002e-14)
(-1.62208e-09 0.00404601 1.46139e-13)
(-1.62839e-09 0.00405685 1.50591e-13)
(-1.6325e-09 0.00406777 1.50673e-13)
(-1.63882e-09 0.0040786 1.46335e-13)
(-1.64231e-09 0.00408844 8.20812e-14)
(-1.64123e-09 0.00409085 8.1122e-14)
(-1.64499e-09 0.00410069 1.47013e-13)
(-1.65076e-09 0.00411152 1.49073e-13)
(-1.65562e-09 0.00412235 1.4704e-13)
(-1.66032e-09 0.00413218 8.14476e-14)
(-1.65824e-09 0.00413459 8.16371e-14)
(-1.66284e-09 0.00414443 1.46573e-13)
(-1.66791e-09 0.00415526 1.49424e-13)
(-1.67335e-09 0.00416608 1.46733e-13)
(-1.67757e-09 0.00417592 8.16904e-14)
(-1.67589e-09 0.00417833 8.14275e-14)
(-1.68015e-09 0.00418817 1.46736e-13)
(-1.68551e-09 0.004199 1.49275e-13)
(-1.69071e-09 0.00420982 1.4684e-13)
(-1.69513e-09 0.00421966 8.15904e-14)
(-1.69328e-09 0.00422207 8.15007e-14)
(-1.69768e-09 0.00423191 1.46667e-13)
(-1.70291e-09 0.00424274 1.49315e-13)
(-1.70823e-09 0.00425356 1.46794e-13)
(-1.71254e-09 0.0042634 8.16121e-14)
(-1.71079e-09 0.00426581 8.14798e-14)
(-1.7151e-09 0.00427565 1.46669e-13)
(-1.72042e-09 0.00428647 1.49307e-13)
(-1.72565e-09 0.0042973 1.46777e-13)
(-1.73005e-09 0.00430714 8.16245e-14)
(-1.7282e-09 0.00430955 8.14494e-14)
(-1.73262e-09 0.00431939 1.46699e-13)
(-1.73782e-09 0.00433021 1.49251e-13)
(-1.74318e-09 0.00434104 1.46831e-13)
(-1.74744e-09 0.00435088 8.15427e-14)
(-1.74576e-09 0.00435329 8.15406e-14)
(-1.74998e-09 0.00436313 1.46576e-13)
(-1.75542e-09 0.00437395 1.49384e-13)
(-1.76049e-09 0.00438478 1.46653e-13)
(-1.76509e-09 0.00439462 8.1743e-14)
(-1.76301e-09 0.00439703 8.12902e-14)
(-1.76771e-09 0.00440686 1.46867e-13)
(-1.77256e-09 0.00441769 1.49019e-13)
(-1.77834e-09 0.00442852 1.47074e-13)
(-1.78209e-09 0.00443836 8.12231e-14)
(-1.78102e-09 0.00444076 8.19102e-14)
(-1.78451e-09 0.0044506 1.46153e-13)
(-1.79083e-09 0.00446144 1.50599e-13)
(-1.79494e-09 0.00447236 1.50673e-13)
(-1.80125e-09 0.0044832 1.4633e-13)
(-1.80474e-09 0.00449303 8.20758e-14)
(-1.80367e-09 0.00449544 8.11283e-14)
(-1.80742e-09 0.00450528 1.4702e-13)
(-1.8132e-09 0.00451611 1.49073e-13)
(-1.81806e-09 0.00452694 1.47037e-13)
(-1.82276e-09 0.00453677 8.14415e-14)
(-1.82068e-09 0.00453918 8.16451e-14)
(-1.82527e-09 0.00454902 1.46579e-13)
(-1.83035e-09 0.00455985 1.49427e-13)
(-1.83579e-09 0.00457068 1.46727e-13)
(-1.84e-09 0.00458051 8.16879e-14)
(-1.83832e-09 0.00458292 8.1432e-14)
(-1.84258e-09 0.00459276 1.46747e-13)
(-1.84794e-09 0.00460359 1.49274e-13)
(-1.85315e-09 0.00461441 1.46842e-13)
(-1.85755e-09 0.00462425 8.15807e-14)
(-1.85572e-09 0.00462666 8.15147e-14)
(-1.86011e-09 0.0046365 1.46668e-13)
(-1.86535e-09 0.00464733 1.49328e-13)
(-1.87065e-09 0.00465815 1.46781e-13)
(-1.87499e-09 0.00466799 8.16218e-14)
(-1.87321e-09 0.0046704 8.14713e-14)
(-1.87755e-09 0.00468024 1.46697e-13)
(-1.88283e-09 0.00469107 1.49288e-13)
(-1.88811e-09 0.00470189 1.46804e-13)
(-1.89246e-09 0.00471173 8.15877e-14)
(-1.89067e-09 0.00471414 8.14975e-14)
(-1.89501e-09 0.00472398 1.4666e-13)
(-1.90031e-09 0.00473481 1.49314e-13)
(-1.90556e-09 0.00474563 1.46761e-13)
(-1.90995e-09 0.00475547 8.16233e-14)
(-1.90811e-09 0.00475788 8.14486e-14)
(-1.91252e-09 0.00476772 1.46706e-13)
(-1.91773e-09 0.00477854 1.49245e-13)
(-1.92308e-09 0.00478937 1.46826e-13)
(-1.92734e-09 0.00479921 8.15329e-14)
(-1.92566e-09 0.00480162 8.15477e-14)
(-1.92988e-09 0.00481146 1.46578e-13)
(-1.93532e-09 0.00482228 1.49384e-13)
(-1.94039e-09 0.00483311 1.46645e-13)
(-1.94499e-09 0.00484295 8.17374e-14)
(-1.94291e-09 0.00484536 8.12944e-14)
(-1.94761e-09 0.00485519 1.46872e-13)
(-1.95246e-09 0.00486602 1.49018e-13)
(-1.95824e-09 0.00487685 1.47069e-13)
(-1.96199e-09 0.00488669 8.12162e-14)
(-1.96092e-09 0.00488909 8.19163e-14)
(-1.96441e-09 0.00489894 1.46157e-13)
(-1.97073e-09 0.00490977 1.50599e-13)
(-1.97484e-09 0.00492069 1.50666e-13)
(-1.98115e-09 0.00493153 1.46319e-13)
(-1.98464e-09 0.00494136 8.20658e-14)
(-1.98357e-09 0.00494377 8.11311e-14)
(-1.98732e-09 0.00495361 1.47018e-13)
(-1.9931e-09 0.00496444 1.49068e-13)
(-1.99796e-09 0.00497527 1.47025e-13)
(-2.00266e-09 0.0049851 8.14337e-14)
(-2.00057e-09 0.00498751 8.16464e-14)
(-2.00517e-09 0.00499735 1.4658e-13)
(-2.01024e-09 0.00500818 1.4942e-13)
(-2.01569e-09 0.00501901 1.46719e-13)
(-2.0199e-09 0.00502884 8.16774e-14)
(-2.01823e-09 0.00503125 8.14374e-14)
(-2.02248e-09 0.00504109 1.46745e-13)
(-2.02784e-09 0.00505192 1.49273e-13)
(-2.03304e-09 0.00506274 1.46828e-13)
(-2.03746e-09 0.00507258 8.15784e-14)
(-2.03561e-09 0.00507499 8.15112e-14)
(-2.04001e-09 0.00508483 1.46677e-13)
(-2.04524e-09 0.00509566 1.49315e-13)
(-2.05056e-09 0.00510648 1.46784e-13)
(-2.05488e-09 0.00511632 8.1601e-14)
(-2.05312e-09 0.00511873 8.14908e-14)
(-2.05744e-09 0.00512857 1.46679e-13)
(-2.06275e-09 0.0051394 1.49308e-13)
(-2.06798e-09 0.00515022 1.46768e-13)
(-2.07239e-09 0.00516006 8.16144e-14)
(-2.07054e-09 0.00516247 8.14608e-14)
(-2.07495e-09 0.00517231 1.4671e-13)
(-2.08016e-09 0.00518314 1.49253e-13)
(-2.08552e-09 0.00519396 1.46823e-13)
(-2.08977e-09 0.0052038 8.15334e-14)
(-2.0881e-09 0.00520621 8.15526e-14)
(-2.09231e-09 0.00521605 1.46589e-13)
(-2.09775e-09 0.00522687 1.49387e-13)
(-2.10283e-09 0.0052377 1.46647e-13)
(-2.10742e-09 0.00524754 8.17346e-14)
(-2.10534e-09 0.00524995 8.13026e-14)
(-2.11004e-09 0.00525979 1.4688e-13)
(-2.1149e-09 0.00527061 1.49023e-13)
(-2.12067e-09 0.00528144 1.4707e-13)
(-2.12443e-09 0.00529128 8.12152e-14)
(-2.12335e-09 0.00529369 8.19234e-14)
(-2.12685e-09 0.00530353 1.46167e-13)
(-2.13316e-09 0.00531436 1.50604e-13)
(-2.13727e-09 0.00532528 1.50667e-13)
(-2.14359e-09 0.00533612 1.46315e-13)
(-2.14708e-09 0.00534595 8.20625e-14)
(-2.146e-09 0.00534836 8.11356e-14)
(-2.14976e-09 0.0053582 1.47024e-13)
(-2.15553e-09 0.00536903 1.49069e-13)
(-2.16039e-09 0.00537986 1.47023e-13)
(-2.16509e-09 0.00538969 8.14294e-14)
(-2.16301e-09 0.0053921 8.16526e-14)
(-2.1676e-09 0.00540194 1.46585e-13)
(-2.17268e-09 0.00541277 1.49424e-13)
(-2.17812e-09 0.0054236 1.46715e-13)
(-2.18234e-09 0.00543343 8.16766e-14)
(-2.18066e-09 0.00543584 8.14401e-14)
(-2.18492e-09 0.00544568 1.46754e-13)
(-2.19027e-09 0.00545651 1.49271e-13)
(-2.19548e-09 0.00546734 1.46831e-13)
(-2.19989e-09 0.00547717 8.15703e-14)
(-2.19805e-09 0.00547958 8.15232e-14)
(-2.20244e-09 0.00548942 1.46675e-13)
(-2.20769e-09 0.00550025 1.49327e-13)
(-2.21298e-09 0.00551108 1.46772e-13)
(-2.21732e-09 0.00552091 8.16121e-14)
(-2.21554e-09 0.00552332 8.14803e-14)
(-2.21989e-09 0.00553316 1.46705e-13)
(-2.22516e-09 0.00554399 1.49288e-13)
(-2.23044e-09 0.00555481 1.46796e-13)
(-2.23479e-09 0.00556465 8.15788e-14)
(-2.23301e-09 0.00556706 8.1507e-14)
(-2.23735e-09 0.0055769 1.46669e-13)
(-2.24264e-09 0.00558773 1.49315e-13)
(-2.24789e-09 0.00559855 1.46754e-13)
(-2.25228e-09 0.00560839 8.16151e-14)
(-2.25044e-09 0.0056108 8.14585e-14)
(-2.25485e-09 0.00562064 1.46716e-13)
(-2.26006e-09 0.00563147 1.49247e-13)
(-2.26541e-09 0.00564229 1.4682e-13)
(-2.26967e-09 0.00565213 8.15254e-14)
(-2.26799e-09 0.00565454 8.1558e-14)
(-2.27221e-09 0.00566438 1.46589e-13)
(-2.27765e-09 0.0056752 1.49387e-13)
(-2.28273e-09 0.00568603 1.4664e-13)
(-2.28732e-09 0.00569587 8.17307e-14)
(-2.28524e-09 0.00569828 8.13051e-14)
(-2.28994e-09 0.00570812 1.46884e-13)
(-2.2948e-09 0.00571894 1.49022e-13)
(-2.30057e-09 0.00572977 1.47065e-13)
(-2.30433e-09 0.00573961 8.12099e-14)
(-2.30325e-09 0.00574202 8.19276e-14)
(-2.30675e-09 0.00575186 1.46169e-13)
(-2.31306e-09 0.00576269 1.50604e-13)
(-2.31717e-09 0.00577361 1.50661e-13)
(-2.32348e-09 0.00578445 1.46307e-13)
(-2.32698e-09 0.00579428 8.2055e-14)
(-2.3259e-09 0.00579669 8.11375e-14)
(-2.32966e-09 0.00580653 1.47022e-13)
(-2.33543e-09 0.00581736 1.49065e-13)
(-2.34029e-09 0.00582819 1.47014e-13)
(-2.34499e-09 0.00583802 8.14239e-14)
(-2.34291e-09 0.00584043 8.1653e-14)
(-2.3475e-09 0.00585027 1.46585e-13)
(-2.35258e-09 0.0058611 1.49418e-13)
(-2.35802e-09 0.00587193 1.46709e-13)
(-2.36223e-09 0.00588176 8.16682e-14)
(-2.36056e-09 0.00588417 8.14445e-14)
(-2.36481e-09 0.00589401 1.4675e-13)
(-2.37017e-09 0.00590484 1.49271e-13)
(-2.37538e-09 0.00591567 1.46819e-13)
(-2.37979e-09 0.0059255 8.15699e-14)
(-2.37794e-09 0.00592791 8.15187e-14)
(-2.38235e-09 0.00593775 1.46683e-13)
(-2.38758e-09 0.00594858 1.49314e-13)
(-2.39289e-09 0.00595941 1.46776e-13)
(-2.39721e-09 0.00596924 8.15931e-14)
(-2.39545e-09 0.00597165 8.14986e-14)
(-2.39977e-09 0.00598149 1.46686e-13)
(-2.40508e-09 0.00599232 1.49309e-13)
(-2.41032e-09 0.00600314 1.46762e-13)
(-2.41472e-09 0.00601298 8.16071e-14)
(-2.41287e-09 0.00601539 8.14691e-14)
(-2.41729e-09 0.00602523 1.46718e-13)
(-2.42249e-09 0.00603606 1.49254e-13)
(-2.42785e-09 0.00604688 1.46818e-13)
(-2.4321e-09 0.00605672 8.15268e-14)
(-2.43043e-09 0.00605913 8.15612e-14)
(-2.43464e-09 0.00606897 1.46598e-13)
(-2.44009e-09 0.0060798 1.49389e-13)
(-2.44516e-09 0.00609062 1.46642e-13)
(-2.44976e-09 0.00610046 8.17286e-14)
(-2.44767e-09 0.00610287 8.13115e-14)
(-2.45237e-09 0.00611271 1.4689e-13)
(-2.45723e-09 0.00612354 1.49027e-13)
(-2.46301e-09 0.00613436 1.47066e-13)
(-2.46676e-09 0.0061442 8.12096e-14)
(-2.46569e-09 0.00614661 8.19329e-14)
(-2.46918e-09 0.00615645 1.46177e-13)
(-2.47549e-09 0.00616728 1.50608e-13)
(-2.4796e-09 0.0061782 1.50663e-13)
(-2.48592e-09 0.00618904 1.46305e-13)
(-2.48941e-09 0.00619888 8.20528e-14)
(-2.48833e-09 0.00620128 8.11409e-14)
(-2.49209e-09 0.00621112 1.47027e-13)
(-2.49786e-09 0.00622195 1.49066e-13)
(-2.50273e-09 0.00623278 1.47013e-13)
(-2.50742e-09 0.00624262 8.14207e-14)
(-2.50534e-09 0.00624502 8.16581e-14)
(-2.50994e-09 0.00625486 1.46589e-13)
(-2.51501e-09 0.00626569 1.49421e-13)
(-2.52045e-09 0.00627652 1.46707e-13)
(-2.52467e-09 0.00628635 8.16684e-14)
(-2.52299e-09 0.00628876 8.1446e-14)
(-2.52725e-09 0.0062986 1.46758e-13)
(-2.5326e-09 0.00630943 1.4927e-13)
(-2.53781e-09 0.00632026 1.46823e-13)
(-2.54222e-09 0.00633009 8.15626e-14)
(-2.54038e-09 0.0063325 8.15295e-14)
(-2.54477e-09 0.00634234 1.46681e-13)
(-2.55002e-09 0.00635317 1.49326e-13)
(-2.55532e-09 0.006364 1.46765e-13)
(-2.55966e-09 0.00637383 8.1605e-14)
(-2.55787e-09 0.00637624 8.14869e-14)
(-2.56222e-09 0.00638608 1.46711e-13)
(-2.5675e-09 0.00639691 1.49288e-13)
(-2.57278e-09 0.00640774 1.4679e-13)
(-2.57712e-09 0.00641757 8.15723e-14)
(-2.57534e-09 0.00641998 8.15139e-14)
(-2.57968e-09 0.00642982 1.46676e-13)
(-2.58498e-09 0.00644065 1.49315e-13)
(-2.59022e-09 0.00645148 1.46749e-13)
(-2.59461e-09 0.00646131 8.16091e-14)
(-2.59278e-09 0.00646372 8.14658e-14)
(-2.59718e-09 0.00647356 1.46724e-13)
(-2.60239e-09 0.00648439 1.49249e-13)
(-2.60775e-09 0.00649521 1.46816e-13)
(-2.61201e-09 0.00650505 8.15199e-14)
(-2.61033e-09 0.00650746 8.15656e-14)
(-2.61454e-09 0.0065173 1.46597e-13)
(-2.61998e-09 0.00652813 1.49389e-13)
(-2.62506e-09 0.00653895 1.46636e-13)
(-2.62965e-09 0.00654879 8.17257e-14)
(-2.62757e-09 0.0065512 8.13129e-14)
(-2.63227e-09 0.00656104 1.46892e-13)
(-2.63713e-09 0.00657187 1.49025e-13)
(-2.64291e-09 0.00658269 1.47063e-13)
(-2.64666e-09 0.00659253 8.12053e-14)
(-2.64559e-09 0.00659494 8.1936e-14)
(-2.64908e-09 0.00660478 1.46178e-13)
(-2.65539e-09 0.00661561 1.50608e-13)
(-2.6595e-09 0.00662653 1.50658e-13)
(-2.66582e-09 0.00663737 1.46299e-13)
(-2.66931e-09 0.00664721 8.20469e-14)
(-2.66823e-09 0.00664961 8.11423e-14)
(-2.67199e-09 0.00665945 1.47025e-13)
(-2.67776e-09 0.00667028 1.49062e-13)
(-2.68262e-09 0.00668111 1.47006e-13)
(-2.68732e-09 0.00669095 8.14165e-14)
(-2.68524e-09 0.00669335 8.16579e-14)
(-2.68984e-09 0.00670319 1.46589e-13)
(-2.69491e-09 0.00671402 1.49416e-13)
(-2.70035e-09 0.00672485 1.46702e-13)
(-2.70457e-09 0.00673469 8.16613e-14)
(-2.70289e-09 0.00673709 8.14498e-14)
(-2.70715e-09 0.00674693 1.46755e-13)