/*--------------------------------*- C++ -*----------------------------------*\
| =========                 |                                                 |
| \\      /  F ield         | OpenFOAM: The Open Source CFD Toolbox           |
|  \\    /   O peration     | Version:  2206                                  |
|   \\  /    A nd           | Website:  www.openfoam.com                      |
|    \\/     M anipulation  |                                                 |
\*---------------------------------------------------------------------------*/
FoamFile
{
    version     2.0;
    format      ascii;
    arch        "LSB;label=32;scalar=64";
    class       volScalarField;
    location    "340";
    object      p;
}
// * * * * * * * * * * * * * * * * * * * * * * * * * * * * * * * * * * * * * //

dimensions      [0 2 -2 0 0 0 0];

internalField   nonuniform List<scalar> 
100000
(
7.97623e-10
3.53513e-08
5.05732e-08
6.61072e-08
7.94015e-08
9.54026e-08
1.04707e-07
1.23277e-07
1.38912e-07
1.61607e-07
1.8215e-07
2.0201e-07
2.26815e-07
2.52068e-07
2.82066e-07
3.12147e-07
3.39634e-07
3.7436e-07
4.07256e-07
4.47492e-07
4.85057e-07
5.23198e-07
5.65088e-07
6.09225e-07
6.56092e-07
7.06239e-07
7.57563e-07
8.05708e-07
8.61458e-07
9.15472e-07
9.76481e-07
1.0356e-06
1.0941e-06
1.15812e-06
1.22213e-06
1.29172e-06
1.36059e-06
1.4279e-06
1.50152e-06
1.57447e-06
1.65357e-06
1.73147e-06
1.80822e-06
1.89095e-06
1.97329e-06
2.06155e-06
2.14881e-06
2.23475e-06
2.32683e-06
2.41838e-06
2.51598e-06
2.61245e-06
2.70774e-06
2.80903e-06
2.90994e-06
3.01675e-06
3.1226e-06
3.22708e-06
3.33778e-06
3.44783e-06
3.56412e-06
3.67904e-06
3.79307e-06
3.91277e-06
4.03248e-06
4.15762e-06
4.28236e-06
4.40507e-06
4.53482e-06
4.66293e-06
4.79845e-06
4.93121e-06
5.06476e-06
5.20197e-06
5.3416e-06
5.48385e-06
5.62956e-06
5.77629e-06
5.92005e-06
6.07134e-06
6.22094e-06
6.37758e-06
6.53227e-06
6.68646e-06
6.84613e-06
7.00581e-06
7.17112e-06
7.33565e-06
7.49871e-06
7.66805e-06
7.83675e-06
8.01161e-06
8.18525e-06
8.35778e-06
8.53631e-06
8.71441e-06
8.89852e-06
9.08152e-06
9.26334e-06
9.45118e-06
9.63862e-06
9.832e-06
1.00244e-05
1.02154e-05
1.04127e-05
1.06093e-05
1.08122e-05
1.10137e-05
1.12143e-05
1.14205e-05
1.16268e-05
1.18386e-05
1.20499e-05
1.22592e-05
1.24756e-05
1.26903e-05
1.29124e-05
1.31317e-05
1.33519e-05
1.35757e-05
1.3802e-05
1.40308e-05
1.42632e-05
1.44965e-05
1.47269e-05
1.49648e-05
1.5201e-05
1.54443e-05
1.56856e-05
1.59265e-05
1.61728e-05
1.64191e-05
1.6671e-05
1.69222e-05
1.71719e-05
1.74279e-05
1.76832e-05
1.79447e-05
1.8205e-05
1.84642e-05
1.87293e-05
1.89941e-05
1.92649e-05
1.95345e-05
1.9803e-05
2.00775e-05
2.03515e-05
2.06317e-05
2.09106e-05
2.11884e-05
2.14722e-05
2.17556e-05
2.2045e-05
2.23333e-05
2.26204e-05
2.29136e-05
2.32062e-05
2.35051e-05
2.38025e-05
2.40991e-05
2.44014e-05
2.47037e-05
2.50114e-05
2.53187e-05
2.5624e-05
2.59363e-05
2.6247e-05
2.65652e-05
2.68805e-05
2.71967e-05
2.75165e-05
2.78387e-05
2.81636e-05
2.84919e-05
2.88212e-05
2.91476e-05
2.94815e-05
2.98138e-05
3.0153e-05
3.04903e-05
3.08272e-05
3.11695e-05
3.15118e-05
3.18597e-05
3.22069e-05
3.25526e-05
3.29046e-05
3.32559e-05
3.36134e-05
3.39697e-05
3.43249e-05
3.46861e-05
3.50469e-05
3.54136e-05
3.57793e-05
3.61438e-05
3.65143e-05
3.68844e-05
3.72604e-05
3.76354e-05
3.80092e-05
3.83891e-05
3.87684e-05
3.91539e-05
3.95381e-05
3.99214e-05
4.03103e-05
4.06993e-05
4.10937e-05
4.14877e-05
4.18797e-05
4.22787e-05
4.26761e-05
4.3081e-05
4.3483e-05
4.38859e-05
4.42923e-05
4.47013e-05
4.51128e-05
4.55279e-05
4.59439e-05
4.6357e-05
4.67776e-05
4.71965e-05
4.76225e-05
4.80465e-05
4.847e-05
4.8899e-05
4.9328e-05
4.97627e-05
5.01965e-05
5.06289e-05
5.10676e-05
5.15056e-05
5.19499e-05
5.23928e-05
5.28347e-05
5.32826e-05
5.37301e-05
5.41835e-05
5.46359e-05
5.50871e-05
5.55443e-05
5.60011e-05
5.64639e-05
5.69255e-05
5.73861e-05
5.78526e-05
5.83187e-05
5.87908e-05
5.92618e-05
5.97316e-05
6.02075e-05
6.06828e-05
6.11644e-05
6.16446e-05
6.21239e-05
6.26089e-05
6.30939e-05
6.35843e-05
6.40744e-05
6.45624e-05
6.50574e-05
6.55508e-05
6.60517e-05
6.65497e-05
6.70486e-05
6.75511e-05
6.80561e-05
6.85637e-05
6.90748e-05
6.95868e-05
7.00959e-05
7.06125e-05
7.11275e-05
7.16495e-05
7.21695e-05
7.26891e-05
7.32141e-05
7.37392e-05
7.42698e-05
7.47997e-05
7.53282e-05
7.58629e-05
7.63969e-05
7.69372e-05
7.74762e-05
7.80141e-05
7.8558e-05
7.91015e-05
7.9651e-05
8.01994e-05
8.07466e-05
8.12998e-05
8.18527e-05
8.24115e-05
8.29692e-05
8.35257e-05
8.40883e-05
8.46504e-05
8.52186e-05
8.57855e-05
8.63515e-05
8.69232e-05
8.74949e-05
8.80721e-05
8.86488e-05
8.92235e-05
8.98053e-05
9.03854e-05
9.0973e-05
9.15577e-05
9.21434e-05
9.27326e-05
9.33243e-05
9.39185e-05
9.45163e-05
9.51151e-05
9.57109e-05
9.63142e-05
9.69159e-05
9.75246e-05
9.81313e-05
9.87376e-05
9.93493e-05
9.99611e-05
0.000100578
0.000101195
0.00010181
0.000102432
0.000103052
0.000103679
0.000104305
0.00010493
0.00010556
0.000106191
0.000106827
0.000107462
0.000108096
0.000108736
0.000109375
0.000110021
0.000110665
0.000111308
0.000111958
0.000112607
0.000113261
0.000113915
0.000114568
0.000115226
0.000115884
0.000116549
0.000117212
0.000117874
0.000118541
0.000119209
0.000119882
0.000120555
0.000121226
0.000121904
0.00012258
0.000123264
0.000123944
0.000124626
0.000125311
0.000125999
0.000126689
0.000127383
0.000128078
0.00012877
0.000129469
0.000130167
0.000130871
0.000131574
0.000132277
0.000132984
0.000133692
0.000134406
0.000135118
0.000135829
0.000136547
0.000137264
0.000137987
0.000138708
0.000139429
0.000140156
0.000140882
0.000141614
0.000142345
0.000143075
0.000143811
0.000144547
0.000145288
0.000146029
0.000146768
0.000147514
0.000148258
0.000149009
0.000149759
0.000150508
0.000151262
0.000152017
0.000152777
0.000153536
0.000154293
0.000155058
0.000155821
0.000156591
0.000157359
0.000158127
0.000158899
0.000159673
0.00016045
0.000161231
0.000162012
0.000162791
0.000163577
0.000164362
0.000165153
0.000165943
0.000166732
0.000167526
0.000168321
0.000169121
0.00016992
0.000170718
0.000171522
0.000172326
0.000173135
0.000173944
0.000174751
0.000175565
0.000176378
0.000177196
0.000178014
0.000178831
0.000179654
0.000180476
0.000181304
0.000182131
0.000182957
0.000183789
0.000184621
0.000185459
0.000186295
0.00018713
0.000187972
0.000188813
0.00018966
0.000190505
0.00019135
0.000192201
0.000193051
0.000193907
0.000194763
0.000195616
0.000196477
0.000197336
0.000198202
0.000199066
0.00019993
0.000200798
0.000201668
0.000202541
0.000203418
0.000204296
0.00020517
0.000206052
0.000206933
0.00020782
0.000208706
0.000209591
0.000210481
0.000211372
0.000212268
0.000213163
0.000214057
0.000214958
0.000215857
0.000216763
0.000217667
0.000218571
0.00021948
0.000220389
0.000221304
0.000222218
0.000223131
0.00022405
0.000224968
0.000225892
0.000226816
0.000227737
0.000228666
0.000229593
0.000230527
0.000231459
0.000232391
0.000233328
0.000234265
0.000235208
0.00023615
0.00023709
0.000238038
0.000238983
0.000239936
0.000240887
0.000241838
0.000242792
0.00024375
0.000244709
0.000245673
0.000246637
0.000247598
0.000248567
0.000249534
0.000250509
0.000251481
0.000252453
0.00025343
0.000254407
0.00025539
0.000256372
0.000257353
0.00025834
0.000259326
0.000260318
0.00026131
0.0002623
0.000263296
0.000264292
0.000265293
0.000266294
0.000267293
0.000268299
0.000269304
0.000270315
0.000271325
0.000272334
0.000273348
0.000274363
0.000275383
0.000276402
0.00027742
0.000278445
0.000279468
0.000280498
0.000281526
0.000282554
0.000283587
0.00028462
0.000285659
0.000286697
0.000287734
0.000288777
0.000289819
0.000290868
0.000291914
0.000292961
0.000294012
0.000295065
0.000296121
0.00029718
0.000298241
0.000299298
0.000300363
0.000301426
0.000302496
0.000303565
0.000304632
0.000305706
0.000306779
0.000307858
0.000308936
0.000310013
0.000311096
0.000312178
0.000313267
0.000314354
0.00031544
0.000316532
0.000317624
0.000318722
0.000319818
0.000320914
0.000322015
0.000323116
0.000324224
0.00032533
0.000326434
0.000327545
0.000328655
0.000329772
0.000330887
0.000332001
0.000333121
0.000334241
0.000335367
0.000336492
0.000337615
0.000338745
0.000339873
0.000341009
0.000342142
0.000343276
0.000344413
0.000345553
0.000346696
0.000347842
0.000348989
0.000350133
0.000351285
0.000352435
0.000353592
0.000354747
0.000355901
0.000357061
0.000358221
0.000359387
0.000360552
0.000361715
0.000362885
0.000364054
0.000365229
0.000366403
0.000367576
0.000368755
0.000369933
0.000371118
0.000372301
0.000373483
0.000374672
0.000375859
0.000377053
0.000378246
0.000379437
0.000380635
0.000381832
0.000383035
0.000384237
0.000385438
0.000386645
0.000387851
0.000389064
0.000390275
0.000391485
0.000392701
0.000393917
0.000395139
0.00039636
0.000397579
0.000398805
0.000400029
0.000401261
0.00040249
0.00040372
0.000404954
0.00040619
0.000407428
0.00040867
0.000409913
0.000411154
0.000412401
0.000413647
0.0004149
0.000416151
0.000417402
0.000418658
0.000419914
0.000421176
0.000422436
0.000423696
0.000424962
0.000426227
0.000427498
0.000428768
0.000430037
0.000431312
0.000432586
0.000433867
0.000435146
0.000436425
0.000437709
0.000438993
0.000440282
0.000441571
0.000442859
0.000444152
0.000445445
0.000446745
0.000448043
0.00044934
0.000450642
0.000451945
0.000453253
0.000454561
0.000455867
0.00045718
0.000458491
0.000459809
0.000461125
0.000462442
0.000463762
0.000465085
0.00046641
0.000467739
0.000469069
0.000470395
0.00047173
0.000473063
0.000474402
0.00047574
0.000477077
0.00047842
0.000479763
0.000481111
0.000482459
0.000483805
0.000485158
0.000486509
0.000487867
0.000489224
0.00049058
0.000491941
0.000493303
0.00049467
0.000496036
0.000497401
0.000498772
0.000500142
0.000501519
0.000502894
0.000504269
0.000505649
0.000507029
0.000508415
0.0005098
0.000511183
0.000512573
0.000513962
0.000515357
0.000516751
0.000518144
0.000519543
0.000520942
0.000522346
0.00052375
0.000525152
0.00052656
0.000527968
0.000529382
0.000530794
0.000532207
0.000533623
0.000535042
0.000536463
0.000537888
0.000539314
0.000540737
0.000542167
0.000543596
0.000545032
0.000546465
0.000547899
0.000549338
0.000550776
0.000552221
0.000553665
0.000555107
0.000556555
0.000558003
0.000559457
0.00056091
0.000562362
0.000563819
0.000565277
0.00056674
0.000568202
0.000569663
0.00057113
0.000572597
0.000574069
0.000575541
0.000577011
0.000578487
0.000579963
0.000581445
0.000582926
0.000584406
0.000585891
0.000587377
0.000588868
0.000590358
0.000591847
0.000593342
0.000594836
0.000596338
0.000597836
0.000599335
0.000600838
0.000602344
0.000603852
0.000605364
0.000606876
0.000608386
0.000609903
0.000611418
0.000612941
0.000614461
0.000615981
0.000617507
0.000619032
0.000620564
0.000622094
0.000623623
0.000625158
0.000626693
0.000628233
0.000629773
0.000631311
0.000632856
0.0006344
0.00063595
0.000637499
0.000639046
0.0006406
0.000642153
0.000643713
0.000645271
0.000646828
0.000648391
0.000649954
0.000651522
0.00065309
0.000654656
0.000656229
0.000657801
0.000659379
0.000660955
0.000662531
0.000664113
0.000665694
0.000667281
0.000668868
0.000670452
0.000672044
0.000673634
0.000675231
0.000676826
0.000678421
0.00068002
0.000681622
0.000683226
0.000684834
0.000686442
0.000688048
0.000689661
0.000691273
0.000692891
0.000694508
0.000696124
0.000697745
0.000699367
0.000700994
0.000702621
0.000704246
0.000705877
0.000707507
0.000709144
0.00071078
0.000712414
0.000714055
0.000715695
0.000717341
0.000718986
0.000720629
0.000722279
0.000723929
0.000725584
0.000727238
0.000728891
0.00073055
0.000732209
0.000733874
0.000735537
0.0007372
0.000738868
0.000740536
0.00074221
0.000743883
0.000745555
0.000747233
0.00074891
0.000750594
0.000752275
0.000753957
0.000755643
0.000757331
0.000759022
0.000760716
0.000762412
0.000764104
0.000765804
0.000767502
0.000769207
0.000770911
0.000772613
0.000774322
0.00077603
0.000777744
0.000779457
0.000781169
0.000782887
0.000784604
0.000786328
0.00078805
0.000789771
0.000791498
0.000793225
0.000794958
0.000796689
0.00079842
0.000800156
0.000801892
0.000803635
0.000805375
0.000807115
0.000808861
0.000810607
0.000812358
0.000814108
0.000815857
0.000817613
0.000819367
0.000821128
0.000822887
0.000824646
0.00082641
0.000828175
0.000829944
0.000831714
0.000833481
0.000835255
0.000837028
0.000838808
0.000840586
0.000842364
0.000844146
0.00084593
0.000847717
0.000849507
0.000851299
0.000853087
0.000854883
0.000856677
0.000858478
0.000860278
0.000862077
0.000863881
0.000865685
0.000867495
0.000869304
0.000871112
0.000872926
0.00087474
0.000876559
0.000878377
0.000880195
0.000882018
0.000883841
0.00088567
0.000887497
0.000889324
0.000891156
0.000892988
0.000894827
0.000896664
0.000898499
0.000900341
0.000902183
0.00090403
0.000905876
0.000907722
0.000909573
0.000911424
0.00091328
0.000915136
0.00091699
0.000918851
0.000920711
0.000922578
0.000924442
0.000926307
0.000928175
0.000930046
0.00093192
0.000933797
0.000935675
0.00093755
0.000939433
0.000941314
0.000943202
0.000945088
0.000946973
0.000948864
0.000950755
0.000952652
0.000954548
0.000956443
0.000958343
0.000960243
0.00096215
0.000964055
0.000965959
0.000967869
0.000969778
0.000971694
0.000973608
0.000975521
0.000977441
0.000979359
0.000981284
0.000983208
0.000985131
0.000987059
0.000988987
0.000990921
0.000992855
0.000994786
0.000996724
0.000998662
0.00100061
0.00100255
0.00100449
0.00100644
0.00100838
0.00101034
0.00101229
0.00101424
0.00101619
0.00101815
0.00102011
0.00102207
0.00102403
0.001026
0.00102797
0.00102994
0.00103191
0.00103388
0.00103585
0.00103783
0.00103981
0.00104179
0.00104378
0.00104576
0.00104774
0.00104973
0.00105172
0.00105372
0.00105571
0.0010577
0.0010597
0.0010617
0.0010637
0.0010657
0.00106771
0.00106971
0.00107173
0.00107374
0.00107575
0.00107776
0.00107978
0.0010818
0.00108382
0.00108584
0.00108786
0.00108988
0.00109191
0.00109394
0.00109597
0.00109801
0.00110004
0.00110208
0.00110412
0.00110615
0.0011082
0.00111024
0.00111229
0.00111434
0.00111638
0.00111844
0.00112049
0.00112255
0.00112461
0.00112667
0.00112872
0.00113079
0.00113285
0.00113492
0.00113699
0.00113906
0.00114114
0.00114321
0.00114529
0.00114737
0.00114944
0.00115153
0.00115361
0.0011557
0.00115779
0.00115987
0.00116197
0.00116406
0.00116616
0.00116825
0.00117035
0.00117245
0.00117455
0.00117666
0.00117877
0.00118087
0.00118299
0.0011851
0.00118721
0.00118933
0.00119144
0.00119356
0.00119568
0.00119781
0.00119994
0.00120206
0.00120419
0.00120632
0.00120845
0.00121059
0.00121272
0.00121486
0.001217
0.00121915
0.00122129
0.00122343
0.00122558
0.00122773
0.00122988
0.00123204
0.0012342
0.00123635
0.00123851
0.00124067
0.00124284
0.001245
0.00124717
0.00124934
0.00125151
0.00125368
0.00125586
0.00125803
0.00126021
0.00126239
0.00126457
0.00126676
0.00126894
0.00127113
0.00127332
0.00127551
0.0012777
0.0012799
0.00128209
0.00128429
0.0012865
0.0012887
0.0012909
0.00129311
0.00129531
0.00129753
0.00129974
0.00130195
0.00130417
0.00130638
0.0013086
0.00131083
0.00131305
0.00131527
0.0013175
0.00131973
0.00132196
0.00132419
0.00132642
0.00132866
0.0013309
0.00133314
0.00133539
0.00133763
0.00133987
0.00134212
0.00134437
0.00134663
0.00134888
0.00135113
0.00135339
0.00135565
0.00135791
0.00136017
0.00136244
0.00136471
0.00136698
0.00136925
0.00137152
0.00137379
0.00137607
0.00137835
0.00138063
0.00138291
0.00138519
0.00138748
0.00138977
0.00139206
0.00139435
0.00139664
0.00139893
0.00140123
0.00140353
0.00140583
0.00140813
0.00141044
0.00141274
0.00141505
0.00141736
0.00141967
0.00142198
0.0014243
0.00142662
0.00142894
0.00143126
0.00143358
0.00143591
0.00143823
0.00144056
0.00144289
0.00144522
0.00144756
0.0014499
0.00145224
0.00145457
0.00145692
0.00145926
0.00146161
0.00146396
0.0014663
0.00146866
0.00147101
0.00147337
0.00147572
0.00147808
0.00148044
0.0014828
0.00148517
0.00148754
0.0014899
0.00149228
0.00149465
0.00149702
0.0014994
0.00150177
0.00150416
0.00150654
0.00150892
0.00151131
0.00151369
0.00151608
0.00151847
0.00152087
0.00152326
0.00152566
0.00152806
0.00153045
0.00153286
0.00153526
0.00153767
0.00154008
0.00154248
0.0015449
0.00154731
0.00154972
0.00155214
0.00155456
0.00155698
0.00155941
0.00156183
0.00156426
0.00156669
0.00156912
0.00157155
0.00157399
0.00157642
0.00157886
0.0015813
0.00158375
0.00158619
0.00158863
0.00159108
0.00159353
0.00159598
0.00159844
0.00160089
0.00160335
0.00160581
0.00160827
0.00161073
0.00161319
0.00161566
0.00161813
0.0016206
0.00162307
0.00162554
0.00162802
0.0016305
0.00163298
0.00163546
0.00163794
0.00164043
0.00164291
0.00164541
0.0016479
0.00165039
0.00165288
0.00165538
0.00165788
0.00166038
0.00166288
0.00166538
0.00166789
0.0016704
0.0016729
0.00167541
0.00167793
0.00168044
0.00168296
0.00168548
0.001688
0.00169052
0.00169305
0.00169558
0.00169811
0.00170064
0.00170317
0.0017057
0.00170824
0.00171078
0.00171332
0.00171586
0.0017184
0.00172095
0.0017235
0.00172605
0.0017286
0.00173115
0.00173371
0.00173627
0.00173882
0.00174138
0.00174395
0.00174651
0.00174908
0.00175165
0.00175421
0.00175679
0.00175936
0.00176194
0.00176451
0.00176709
0.00176967
0.00177225
0.00177484
0.00177743
0.00178001
0.00178261
0.0017852
0.00178779
0.00179039
0.00179299
0.00179559
0.00179819
0.00180079
0.0018034
0.00180601
0.00180862
0.00181123
0.00181384
0.00181646
0.00181908
0.00182169
0.00182432
0.00182694
0.00182957
0.00183219
0.00183482
0.00183745
0.00184008
0.00184272
0.00184535
0.00184799
0.00185063
0.00185327
0.00185592
0.00185856
0.00186121
0.00186386
0.00186651
0.00186916
0.00187182
0.00187447
0.00187713
0.00187979
0.00188246
0.00188512
0.00188778
0.00189045
0.00189312
0.0018958
0.00189847
0.00190114
0.00190382
0.0019065
0.00190918
0.00191186
0.00191455
0.00191723
0.00191992
0.00192261
0.0019253
0.001928
0.00193069
0.00193339
0.00193609
0.0019388
0.0019415
0.0019442
0.00194691
0.00194962
0.00195234
0.00195505
0.00195776
0.00196048
0.0019632
0.00196592
0.00196864
0.00197137
0.00197409
0.00197682
0.00197955
0.00198229
0.00198502
0.00198776
0.00199049
0.00199323
0.00199598
0.00199872
0.00200146
0.00200421
0.00200696
0.00200971
0.00201246
0.00201522
0.00201797
0.00202073
0.00202349
0.00202625
0.00202902
0.00203178
0.00203455
0.00203732
0.00204009
0.00204286
0.00204564
0.00204842
0.0020512
0.00205398
0.00205676
0.00205954
0.00206233
0.00206512
0.00206791
0.0020707
0.0020735
0.00207629
0.00207909
0.00208189
0.00208469
0.0020875
0.0020903
0.00209311
0.00209592
0.00209873
0.00210155
0.00210436
0.00210718
0.00211
0.00211282
0.00211564
0.00211846
0.00212129
0.00212412
0.00212695
0.00212978
0.00213262
0.00213545
0.00213829
0.00214113
0.00214397
0.00214681
0.00214966
0.00215251
0.00215535
0.0021582
0.00216106
0.00216391
0.00216677
0.00216962
0.00217249
0.00217535
0.00217821
0.00218108
0.00218394
0.00218681
0.00218968
0.00219256
0.00219543
0.00219831
0.00220119
0.00220407
0.00220695
0.00220984
0.00221273
0.00221561
0.0022185
0.00222139
0.00222429
0.00222719
0.00223008
0.00223298
0.00223588
0.00223879
0.0022417
0.0022446
0.00224751
0.00225042
0.00225334
0.00225625
0.00225917
0.00226209
0.00226501
0.00226793
0.00227086
0.00227378
0.00227671
0.00227964
0.00228257
0.00228551
0.00228844
0.00229138
0.00229431
0.00229726
0.0023002
0.00230314
0.00230609
0.00230904
0.00231199
0.00231494
0.00231789
0.00232085
0.00232381
0.00232677
0.00232973
0.00233269
0.00233566
0.00233863
0.0023416
0.00234457
0.00234754
0.00235051
0.00235349
0.00235647
0.00235945
0.00236244
0.00236542
0.00236841
0.00237139
0.00237439
0.00237738
0.00238037
0.00238337
0.00238636
0.00238937
0.00239237
0.00239537
0.00239838
0.00240138
0.00240439
0.0024074
0.00241041
0.00241343
0.00241645
0.00241947
0.00242249
0.00242551
0.00242853
0.00243156
0.00243459
0.00243762
0.00244065
0.00244368
0.00244671
0.00244975
0.00245279
0.00245583
0.00245887
0.00246192
0.00246497
0.00246802
0.00247106
0.00247412
0.00247717
0.00248023
0.00248328
0.00248634
0.0024894
0.00249247
0.00249553
0.0024986
0.00250167
0.00250474
0.00250782
0.00251089
0.00251397
0.00251705
0.00252013
0.00252321
0.0025263
0.00252938
0.00253247
0.00253556
0.00253865
0.00254175
0.00254485
0.00254794
0.00255104
0.00255414
0.00255724
0.00256035
0.00256346
0.00256657
0.00256968
0.00257279
0.00257591
0.00257902
0.00258214
0.00258526
0.00258838
0.00259151
0.00259463
0.00259776
0.00260089
0.00260402
0.00260715
0.00261029
0.00261342
0.00261656
0.0026197
0.00262285
0.00262599
0.00262913
0.00263228
0.00263543
0.00263859
0.00264174
0.00264489
0.00264805
0.00265121
0.00265437
0.00265754
0.00266071
0.00266387
0.00266704
0.00267021
0.00267339
0.00267656
0.00267974
0.00268292
0.0026861
0.00268928
0.00269247
0.00269565
0.00269884
0.00270203
0.00270522
0.00270842
0.00271161
0.00271481
0.002718
0.00272121
0.00272441
0.00272761
0.00273082
0.00273403
0.00273724
0.00274046
0.00274367
0.00274688
0.0027501
0.00275332
0.00275655
0.00275977
0.00276299
0.00276622
0.00276945
0.00277268
0.00277591
0.00277915
0.00278238
0.00278563
0.00278886
0.0027921
0.00279535
0.0027986
0.00280184
0.0028051
0.00280835
0.0028116
0.00281486
0.00281811
0.00282138
0.00282464
0.0028279
0.00283117
0.00283443
0.00283771
0.00284098
0.00284425
0.00284752
0.0028508
0.00285408
0.00285736
0.00286064
0.00286393
0.00286721
0.0028705
0.00287379
0.00287708
0.00288037
0.00288367
0.00288697
0.00289027
0.00289357
0.00289687
0.00290017
0.00290348
0.00290679
0.0029101
0.00291341
0.00291672
0.00292004
0.00292336
0.00292668
0.00293
0.00293332
0.00293665
0.00293998
0.0029433
0.00294664
0.00294997
0.00295331
0.00295664
0.00295998
0.00296332
0.00296666
0.00297
0.00297335
0.0029767
0.00298005
0.0029834
0.00298676
0.00299012
0.00299347
0.00299683
0.00300019
0.00300355
0.00300692
0.00301029
0.00301366
0.00301703
0.0030204
0.00302378
0.00302715
0.00303053
0.00303391
0.00303729
0.00304068
0.00304406
0.00304745
0.00305084
0.00305423
0.00305763
0.00306102
0.00306442
0.00306782
0.00307122
0.00307462
0.00307803
0.00308143
0.00308484
0.00308825
0.00309166
0.00309508
0.00309849
0.00310191
0.00310533
0.00310875
0.00311217
0.0031156
0.00311902
0.00312245
0.00312588
0.00312932
0.00313275
0.00313619
0.00313963
0.00314307
0.00314651
0.00314996
0.0031534
0.00315685
0.0031603
0.00316376
0.00316721
0.00317066
0.00317412
0.00317758
0.00318104
0.00318451
0.00318797
0.00319144
0.0031949
0.00319838
0.00320185
0.00320532
0.0032088
0.00321228
0.00321576
0.00321924
0.00322272
0.00322621
0.0032297
0.00323319
0.00323668
0.00324017
0.00324366
0.00324716
0.00325066
0.00325416
0.00325766
0.00326117
0.00326467
0.00326818
0.00327169
0.0032752
0.00327872
0.00328223
0.00328575
0.00328927
0.00329279
0.00329631
0.00329984
0.00330336
0.0033069
0.00331043
0.00331396
0.00331749
0.00332103
0.00332457
0.00332811
0.00333165
0.0033352
0.00333874
0.00334229
0.00334584
0.00334939
0.00335295
0.0033565
0.00336006
0.00336362
0.00336718
0.00337074
0.00337431
0.00337788
0.00338145
0.00338501
0.00338859
0.00339216
0.00339574
0.00339932
0.00340289
0.00340648
0.00341006
0.00341365
0.00341723
0.00342082
0.00342441
0.003428
0.0034316
0.0034352
0.00343879
0.0034424
0.003446
0.0034496
0.00345321
0.00345681
0.00346042
0.00346404
0.00346765
0.00347127
0.00347489
0.0034785
0.00348213
0.00348575
0.00348938
0.003493
0.00349663
0.00350026
0.0035039
0.00350753
0.00351117
0.0035148
0.00351845
0.00352209
0.00352573
0.00352938
0.00353303
0.00353668
0.00354033
0.00354398
0.00354764
0.00355129
0.00355495
0.00355861
0.00356228
0.00356594
0.00356961
0.00357328
0.00357695
0.00358062
0.00358429
0.00358797
0.00359165
0.00359532
0.00359901
0.00360269
0.00360637
0.00361006
0.00361375
0.00361744
0.00362114
0.00362483
0.00362853
0.00363222
0.00363593
0.00363963
0.00364333
0.00364703
0.00365074
0.00365445
0.00365817
0.00366188
0.00366559
0.00366931
0.00367303
0.00367676
0.00368048
0.0036842
0.00368793
0.00369166
0.00369539
0.00369912
0.00370286
0.00370659
0.00371033
0.00371407
0.00371782
0.00372156
0.0037253
0.00372905
0.0037328
0.00373655
0.0037403
0.00374406
0.00374782
0.00375158
0.00375534
0.0037591
0.00376286
0.00376663
0.0037704
0.00377417
0.00377794
0.00378171
0.00378549
0.00378927
0.00379305
0.00379683
0.00380061
0.00380439
0.00380818
0.00381197
0.00381576
0.00381955
0.00382335
0.00382715
0.00383095
0.00383475
0.00383855
0.00384235
0.00384616
0.00384997
0.00385378
0.00385759
0.0038614
0.00386522
0.00386904
0.00387286
0.00387668
0.0038805
0.00388432
0.00388815
0.00389198
0.00389581
0.00389964
0.00390348
0.00390732
0.00391115
0.00391499
0.00391883
0.00392268
0.00392653
0.00393037
0.00393422
0.00393807
0.00394192
0.00394578
0.00394964
0.00395349
0.00395736
0.00396122
0.00396508
0.00396895
0.00397281
0.00397669
0.00398056
0.00398443
0.00398831
0.00399218
0.00399606
0.00399994
0.00400383
0.00400771
0.0040116
0.00401549
0.00401938
0.00402327
0.00402717
0.00403106
0.00403496
0.00403886
0.00404276
0.00404667
0.00405058
0.00405448
0.00405839
0.0040623
0.00406622
0.00407013
0.00407405
0.00407797
0.00408189
0.00408581
0.00408974
0.00409366
0.00409759
0.00410152
0.00410546
0.00410939
0.00411332
0.00411726
0.0041212
0.00412515
0.00412909
0.00413303
0.00413698
0.00414093
0.00414488
0.00414884
0.00415279
0.00415674
0.0041607
0.00416466
0.00416863
0.00417259
0.00417656
0.00418052
0.00418449
0.00418846
0.00419244
0.00419641
0.00420039
0.00420437
0.00420835
0.00421234
0.00421632
0.00422031
0.00422429
0.00422829
0.00423228
0.00423627
0.00424027
0.00424427
0.00424827
0.00425227
0.00425628
0.00426028
0.00426429
0.0042683
0.00427231
0.00427632
0.00428034
0.00428436
0.00428838
0.0042924
0.00429642
0.00430044
0.00430447
0.0043085
0.00431253
0.00431656
0.0043206
0.00432463
0.00432867
0.00433271
0.00433675
0.00434079
0.00434484
0.00434889
0.00435294
0.00435698
0.00436104
0.00436509
0.00436915
0.00437321
0.00437726
0.00438133
0.00438539
0.00438946
0.00439353
0.00439759
0.00440166
0.00440574
0.00440981
0.00441389
0.00441797
0.00442205
0.00442614
0.00443022
0.00443431
0.0044384
0.00444249
0.00444658
0.00445067
0.00445477
0.00445887
0.00446297
0.00446707
0.00447117
0.00447528
0.00447939
0.0044835
0.00448761
0.00449172
0.00449584
0.00449996
0.00450407
0.00450819
0.00451232
0.00451644
0.00452057
0.00452469
0.00452883
0.00453296
0.00453709
0.00454123
0.00454536
0.0045495
0.00455364
0.00455779
0.00456193
0.00456608
0.00457023
0.00457438
0.00457853
0.00458269
0.00458684
0.004591
0.00459516
0.00459932
0.00460349
0.00460765
0.00461182
0.00461599
0.00462016
0.00462434
0.00462851
0.00463269
0.00463687
0.00464105
0.00464523
0.00464942
0.0046536
0.00465779
0.00466198
0.00466618
0.00467037
0.00467457
0.00467876
0.00468296
0.00468717
0.00469137
0.00469557
0.00469978
0.00470399
0.0047082
0.00471242
0.00471663
0.00472085
0.00472506
0.00472929
0.00473351
0.00473773
0.00474196
0.00474618
0.00475042
0.00475465
0.00475888
0.00476312
0.00476735
0.00477159
0.00477584
0.00478007
0.00478432
0.00478857
0.00479282
0.00479707
0.00480132
0.00480557
0.00480983
0.00481409
0.00481835
0.00482261
0.00482687
0.00483114
0.00483541
0.00483968
0.00484395
0.00484822
0.0048525
0.00485677
0.00486106
0.00486534
0.00486962
0.0048739
0.00487819
0.00488248
0.00488677
0.00489106
0.00489535
0.00489965
0.00490395
0.00490825
0.00491255
0.00491685
0.00492116
0.00492547
0.00492978
0.00493408
0.0049384
0.00494271
0.00494703
0.00495135
0.00495567
0.00495999
0.00496431
0.00496864
0.00497297
0.00497729
0.00498163
0.00498596
0.0049903
0.00499463
0.00499897
0.00500331
0.00500765
0.005012
0.00501635
0.0050207
0.00502505
0.0050294
0.00503375
0.00503811
0.00504247
0.00504683
0.00505119
0.00505556
0.00505992
0.00506429
0.00506866
0.00507303
0.0050774
0.00508178
0.00508616
0.00509053
0.00509492
0.0050993
0.00510369
0.00510807
0.00511246
0.00511685
0.00512124
0.00512564
0.00513003
0.00513443
0.00513883
0.00514323
0.00514763
0.00515204
0.00515644
0.00516085
0.00516526
0.00516968
0.00517409
0.0051785
0.00518292
0.00518734
0.00519177
0.00519619
0.00520061
0.00520504
0.00520947
0.0052139
0.00521834
0.00522277
0.00522721
0.00523165
0.00523609
0.00524053
0.00524498
0.00524942
0.00525387
0.00525832
0.00526278
0.00526723
0.00527168
0.00527614
0.0052806
0.00528507
0.00528953
0.00529399
0.00529846
0.00530293
0.00530741
0.00531188
0.00531635
0.00532083
0.00532531
0.00532979
0.00533427
0.00533875
0.00534324
0.00534773
0.00535222
0.00535671
0.0053612
0.0053657
0.0053702
0.0053747
0.0053792
0.0053837
0.0053882
0.00539271
0.00539722
0.00540173
0.00540624
0.00541076
0.00541527
0.00541979
0.00542431
0.00542883
0.00543335
0.00543788
0.00544241
0.00544694
0.00545147
0.005456
0.00546054
0.00546508
0.00546962
0.00547416
0.0054787
0.00548325
0.00548779
0.00549234
0.00549689
0.00550144
0.005506
0.00551055
0.00551511
0.00551967
0.00552423
0.0055288
0.00553336
0.00553793
0.0055425
0.00554707
0.00555164
0.00555622
0.0055608
0.00556537
0.00556995
0.00557454
0.00557912
0.00558371
0.00558829
0.00559288
0.00559747
0.00560207
0.00560666
0.00561126
0.00561586
0.00562046
0.00562506
0.00562967
0.00563428
0.00563888
0.00564349
0.0056481
0.00565272
0.00565733
0.00566195
0.00566657
0.00567119
0.00567582
0.00568044
0.00568507
0.0056897
0.00569433
0.00569896
0.0057036
0.00570824
0.00571288
0.00571752
0.00572216
0.00572681
0.00573145
0.0057361
0.00574075
0.0057454
0.00575006
0.00575471
0.00575937
0.00576403
0.00576869
0.00577336
0.00577802
0.00578269
0.00578736
0.00579203
0.0057967
0.00580138
0.00580605
0.00581073
0.00581541
0.00582009
0.00582478
0.00582946
0.00583415
0.00583884
0.00584353
0.00584822
0.00585291
0.00585761
0.00586231
0.00586701
0.00587172
0.00587642
0.00588112
0.00588583
0.00589054
0.00589526
0.00589997
0.00590469
0.00590941
0.00591413
0.00591885
0.00592357
0.0059283
0.00593303
0.00593776
0.00594249
0.00594722
0.00595195
0.00595669
0.00596143
0.00596617
0.00597092
0.00597566
0.00598041
0.00598515
0.00598991
0.00599466
0.00599941
0.00600417
0.00600892
0.00601368
0.00601845
0.00602321
0.00602797
0.00603274
0.00603751
0.00604228
0.00604705
0.00605182
0.0060566
0.00606138
0.00606616
0.00607094
0.00607572
0.00608051
0.0060853
0.00609009
0.00609488
0.00609967
0.00610446
0.00610926
0.00611406
0.00611887
0.00612366
0.00612847
0.00613328
0.00613809
0.0061429
0.00614771
0.00615252
0.00615734
0.00616216
0.00616698
0.0061718
0.00617662
0.00618145
0.00618628
0.00619111
0.00619594
0.00620077
0.0062056
0.00621044
0.00621528
0.00622012
0.00622496
0.00622981
0.00623466
0.0062395
0.00624435
0.0062492
0.00625406
0.00625891