/*--------------------------------*- C++ -*----------------------------------*\
| =========                 |                                                 |
| \\      /  F ield         | OpenFOAM: The Open Source CFD Toolbox           |
|  \\    /   O peration     | Version:  2206                                  |
|   \\  /    A nd           | Website:  www.openfoam.com                      |
|    \\/     M anipulation  |                                                 |
\*---------------------------------------------------------------------------*/
FoamFile
{
    version     2.0;
    format      ascii;
    arch        "LSB;label=32;scalar=64";
    class       volVectorField;
    location    "340";
    object      U;
}
// * * * * * * * * * * * * * * * * * * * * * * * * * * * * * * * * * * * * * //

dimensions      [0 1 -1 0 0 0 0];

internalField   nonuniform List<vector> 
100000
(
(-5.94173e-12 6.45276e-06 -2.0955e-13)
(-5.66715e-12 1.20229e-05 6.86469e-14)
(-8.68083e-12 2.19242e-05 1.50036e-13)
(-1.49328e-11 3.25584e-05 1.51945e-13)
(-1.82331e-11 4.22016e-05 8.60858e-14)
(-1.72265e-11 4.46598e-05 7.43419e-14)
(-2.08316e-11 5.45229e-05 1.4133e-13)
(-2.64543e-11 6.5296e-05 1.47513e-13)
(-3.14112e-11 7.60513e-05 1.49087e-13)
(-3.59289e-11 8.578e-05 8.40255e-14)
(-3.40279e-11 8.81729e-05 7.79039e-14)
(-3.84123e-11 9.80099e-05 1.427e-13)
(-4.36117e-11 0.000108787 1.4811e-13)
(-4.88122e-11 0.000119551 1.474e-13)
(-5.32666e-11 0.000129304 8.31507e-14)
(-5.12941e-11 0.000131685 7.85558e-14)
(-5.59017e-11 0.000141509 1.43857e-13)
(-6.07524e-11 0.000152286 1.47678e-13)
(-6.6479e-11 0.000163054 1.47288e-13)
(-7.0229e-11 0.000172817 8.20482e-14)
(-6.91673e-11 0.000175194 7.96357e-14)
(-7.26429e-11 0.000185012 1.43607e-13)
(-7.89013e-11 0.000195796 1.49227e-13)
(-8.30059e-11 0.000206657 1.50858e-13)
(-8.92916e-11 0.000217433 1.4754e-13)
(-9.27954e-11 0.000227204 8.32913e-14)
(-9.16692e-11 0.000229579 7.99152e-14)
(-9.54361e-11 0.000239391 1.46e-13)
(-1.01158e-10 0.000250168 1.4896e-13)
(-1.06036e-10 0.000260938 1.47865e-13)
(-1.10698e-10 0.000270713 8.22753e-14)
(-1.08621e-10 0.000273086 8.05389e-14)
(-1.13182e-10 0.000282896 1.455e-13)
(-1.18245e-10 0.000293672 1.49149e-13)
(-1.23665e-10 0.000304443 1.47225e-13)
(-1.27877e-10 0.00031422 8.22948e-14)
(-1.26178e-10 0.000316593 8.03686e-14)
(-1.3043e-10 0.0003264 1.45655e-13)
(-1.35748e-10 0.000337177 1.48853e-13)
(-1.40955e-10 0.000347948 1.47113e-13)
(-1.4534e-10 0.000357728 8.20034e-14)
(-1.43503e-10 0.0003601 8.04971e-14)
(-1.47872e-10 0.000369906 1.45556e-13)
(-1.53095e-10 0.000380682 1.48808e-13)
(-1.58376e-10 0.000391454 1.46869e-13)
(-1.62701e-10 0.000401234 8.19097e-14)
(-1.60914e-10 0.000403607 8.04832e-14)
(-1.65248e-10 0.000413411 1.45578e-13)
(-1.70495e-10 0.000424187 1.48685e-13)
(-1.7576e-10 0.000434959 1.46754e-13)
(-1.80089e-10 0.000444741 8.17625e-14)
(-1.7831e-10 0.000447113 8.05397e-14)
(-1.8263e-10 0.000456916 1.4553e-13)
(-1.879e-10 0.000467692 1.48649e-13)
(-1.9313e-10 0.000478464 1.46594e-13)
(-1.97504e-10 0.000488247 8.17114e-14)
(-1.95669e-10 0.000490619 8.05113e-14)
(-2.00062e-10 0.000500422 1.45573e-13)
(-2.05242e-10 0.000511197 1.48526e-13)
(-2.10581e-10 0.00052197 1.46568e-13)
(-2.14821e-10 0.000531754 8.15459e-14)
(-2.1315e-10 0.000534126 8.0631e-14)
(-2.17347e-10 0.000543927 1.45441e-13)
(-2.22763e-10 0.000554703 1.48622e-13)
(-2.27818e-10 0.000565475 1.46309e-13)
(-2.32398e-10 0.00057526 8.16865e-14)
(-2.3032e-10 0.000577632 8.0398e-14)
(-2.35006e-10 0.000587433 1.45728e-13)
(-2.39834e-10 0.000598208 1.48227e-13)
(-2.45593e-10 0.000608981 1.46658e-13)
(-2.49328e-10 0.000618766 8.11244e-14)
(-2.48264e-10 0.000621138 8.10196e-14)
(-2.51738e-10 0.000630939 1.4503e-13)
(-2.58023e-10 0.000641721 1.49753e-13)
(-2.62118e-10 0.000652583 1.50259e-13)
(-2.68409e-10 0.000663362 1.46251e-13)
(-2.71896e-10 0.000673149 8.21488e-14)
(-2.70804e-10 0.00067552 8.04795e-14)
(-2.74554e-10 0.00068532 1.4628e-13)
(-2.80296e-10 0.000696095 1.48608e-13)
(-2.8515e-10 0.000706869 1.46896e-13)
(-2.89827e-10 0.000716655 8.14538e-14)
(-2.87748e-10 0.000719026 8.09978e-14)
(-2.92321e-10 0.000728826 1.45811e-13)
(-2.97378e-10 0.000739601 1.48915e-13)
(-3.028e-10 0.000750374 1.46523e-13)
(-3.07003e-10 0.000760161 8.16502e-14)
(-3.0532e-10 0.000762532 8.07868e-14)
(-3.09564e-10 0.000772331 1.45951e-13)
(-3.14896e-10 0.000783106 1.48726e-13)
(-3.20087e-10 0.00079388 1.46571e-13)
(-3.24484e-10 0.000803667 8.15113e-14)
(-3.22638e-10 0.000806038 8.08567e-14)
(-3.27022e-10 0.000815837 1.45865e-13)
(-3.32233e-10 0.000826612 1.48729e-13)
(-3.37529e-10 0.000837385 1.46477e-13)
(-3.41831e-10 0.000847173 8.14952e-14)
(-3.40073e-10 0.000849544 8.08362e-14)
(-3.44375e-10 0.000859342 1.45848e-13)
(-3.49665e-10 0.000870118 1.48692e-13)
(-3.54881e-10 0.000880891 1.46414e-13)
(-3.59266e-10 0.000890679 8.14767e-14)
(-3.5742e-10 0.00089305 8.08042e-14)
(-3.6182e-10 0.000902848 1.45865e-13)
(-3.66999e-10 0.000913623 1.48607e-13)
(-3.72341e-10 0.000924397 1.46428e-13)
(-3.76579e-10 0.000934184 8.1366e-14)
(-3.74907e-10 0.000936556 8.0895e-14)
(-3.79103e-10 0.000946354 1.4573e-13)
(-3.84523e-10 0.000957129 1.48714e-13)
(-3.89578e-10 0.000967902 1.46216e-13)
(-3.94158e-10 0.00097769 8.15386e-14)
(-3.92078e-10 0.000980062 8.0647e-14)
(-3.96763e-10 0.000989859 1.46007e-13)
(-4.01597e-10 0.00100063 1.48332e-13)
(-4.07353e-10 0.00101141 1.46599e-13)
(-4.11092e-10 0.0010212 8.10028e-14)
(-4.10021e-10 0.00102357 8.12575e-14)
(-4.13498e-10 0.00103337 1.45293e-13)
(-4.19785e-10 0.00104415 1.49872e-13)
(-4.2388e-10 0.00105501 1.50185e-13)
(-4.3017e-10 0.00106579 1.46044e-13)
(-4.33655e-10 0.00107558 8.19543e-14)
(-4.32567e-10 0.00107795 8.06037e-14)
(-4.36316e-10 0.00108775 1.46366e-13)
(-4.4206e-10 0.00109852 1.48563e-13)
(-4.46911e-10 0.0011093 1.46723e-13)
(-4.51589e-10 0.00111908 8.12912e-14)
(-4.4951e-10 0.00112146 8.11179e-14)
(-4.54084e-10 0.00113125 1.45906e-13)
(-4.59142e-10 0.00114203 1.48891e-13)
(-4.64562e-10 0.0011528 1.4638e-13)
(-4.68767e-10 0.00116259 8.15144e-14)
(-4.67082e-10 0.00116496 8.09009e-14)
(-4.71329e-10 0.00117476 1.46057e-13)
(-4.76658e-10 0.00118553 1.48715e-13)
(-4.81854e-10 0.00119631 1.46463e-13)
(-4.86243e-10 0.0012061 8.13878e-14)
(-4.84407e-10 0.00120847 8.09779e-14)
(-4.88779e-10 0.00121826 1.45964e-13)
(-4.94005e-10 0.00122904 1.48746e-13)
(-4.99283e-10 0.00123981 1.46375e-13)
(-5.03607e-10 0.0012496 8.14085e-14)
(-5.01823e-10 0.00125197 8.0932e-14)
(-5.06156e-10 0.00126177 1.45979e-13)
(-5.1141e-10 0.00127254 1.48688e-13)
(-5.1667e-10 0.00128332 1.46371e-13)
(-5.21001e-10 0.00129311 8.1358e-14)
(-5.1922e-10 0.00129548 8.09538e-14)
(-5.23542e-10 0.00130528 1.45931e-13)
(-5.28816e-10 0.00131605 1.48694e-13)
(-5.34045e-10 0.00132682 1.46306e-13)
(-5.38418e-10 0.00133661 8.13763e-14)
(-5.36583e-10 0.00133899 8.09029e-14)
(-5.40974e-10 0.00134878 1.45966e-13)
(-5.46161e-10 0.00135956 1.4861e-13)
(-5.51496e-10 0.00137033 1.46348e-13)
(-5.5574e-10 0.00138012 8.12723e-14)
(-5.54063e-10 0.00138249 8.09979e-14)
(-5.58263e-10 0.00139229 1.45829e-13)
(-5.63681e-10 0.00140306 1.48731e-13)
(-5.68738e-10 0.00141384 1.46148e-13)
(-5.73315e-10 0.00142363 8.14604e-14)
(-5.71237e-10 0.001426 8.07452e-14)
(-5.75921e-10 0.00143579 1.4611e-13)
(-5.80758e-10 0.00144657 1.48355e-13)
(-5.86511e-10 0.00145734 1.46549e-13)
(-5.90252e-10 0.00146713 8.09325e-14)
(-5.89179e-10 0.0014695 8.13573e-14)
(-5.92657e-10 0.0014793 1.45394e-13)
(-5.98944e-10 0.00149008 1.49905e-13)
(-6.0304e-10 0.00150094 1.50125e-13)
(-6.09329e-10 0.00151172 1.45922e-13)
(-6.12813e-10 0.00152151 8.18462e-14)
(-6.11728e-10 0.00152388 8.06531e-14)
(-6.15475e-10 0.00153368 1.46386e-13)
(-6.21222e-10 0.00154446 1.48518e-13)
(-6.26069e-10 0.00155523 1.46613e-13)
(-6.30749e-10 0.00156502 8.11979e-14)
(-6.28669e-10 0.00156739 8.11656e-14)
(-6.33245e-10 0.00157719 1.45935e-13)
(-6.38301e-10 0.00158796 1.48855e-13)
(-6.43723e-10 0.00159874 1.46287e-13)
(-6.47924e-10 0.00160852 8.14284e-14)
(-6.46245e-10 0.0016109 8.09529e-14)
(-6.50487e-10 0.00162069 1.46087e-13)
(-6.55822e-10 0.00163147 1.48693e-13)
(-6.6101e-10 0.00164224 1.46377e-13)
(-6.65408e-10 0.00165203 8.13179e-14)
(-6.63562e-10 0.0016544 8.10224e-14)
(-6.67946e-10 0.0016642 1.4601e-13)
(-6.73158e-10 0.00167497 1.4872e-13)
(-6.78453e-10 0.00168575 1.46316e-13)
(-6.82755e-10 0.00169554 8.13288e-14)
(-6.80998e-10 0.00169791 8.09987e-14)
(-6.853e-10 0.0017077 1.46002e-13)
(-6.90591e-10 0.00171848 1.48701e-13)
(-6.95806e-10 0.00172925 1.46284e-13)
(-7.00191e-10 0.00173904 8.13314e-14)
(-6.98345e-10 0.00174141 8.09658e-14)
(-7.02745e-10 0.00175121 1.46024e-13)
(-7.07927e-10 0.00176198 1.48634e-13)
(-7.13266e-10 0.00177276 1.46324e-13)
(-7.17506e-10 0.00178255 8.12412e-14)
(-7.15831e-10 0.00178492 8.10537e-14)
(-7.20029e-10 0.00179471 1.45896e-13)
(-7.2545e-10 0.00180549 1.48755e-13)
(-7.30505e-10 0.00181626 1.46135e-13)
(-7.35084e-10 0.00182605 8.14311e-14)
(-7.33004e-10 0.00182843 8.08032e-14)
(-7.37688e-10 0.00183822 1.46177e-13)
(-7.42526e-10 0.001849 1.48384e-13)
(-7.48279e-10 0.00185977 1.4654e-13)
(-7.5202e-10 0.00186956 8.09076e-14)
(-7.50946e-10 0.00187193 8.14154e-14)
(-7.54425e-10 0.00188173 1.45461e-13)
(-7.60712e-10 0.00189251 1.49938e-13)
(-7.64808e-10 0.00190337 1.50112e-13)
(-7.71097e-10 0.00191415 1.45876e-13)
(-7.74581e-10 0.00192394 8.18013e-14)
(-7.73496e-10 0.00192631 8.06865e-14)
(-7.77243e-10 0.00193611 1.46412e-13)
(-7.8299e-10 0.00194688 1.48511e-13)
(-7.87837e-10 0.00195766 1.46573e-13)
(-7.92517e-10 0.00196745 8.1158e-14)
(-7.90438e-10 0.00196982 8.12003e-14)
(-7.95012e-10 0.00197961 1.45964e-13)
(-8.00071e-10 0.00199039 1.48854e-13)
(-8.0549e-10 0.00200116 1.46252e-13)
(-8.09694e-10 0.00201095 8.13954e-14)
(-8.08011e-10 0.00201332 8.0985e-14)
(-8.12257e-10 0.00202312 1.46123e-13)
(-8.17587e-10 0.00203389 1.48691e-13)
(-8.22781e-10 0.00204467 1.46353e-13)
(-8.27171e-10 0.00205446 8.12815e-14)
(-8.25335e-10 0.00205683 8.10639e-14)
(-8.29708e-10 0.00206663 1.46037e-13)
(-8.34935e-10 0.0020774 1.48735e-13)
(-8.40212e-10 0.00208817 1.46282e-13)
(-8.44535e-10 0.00209797 8.13145e-14)
(-8.42752e-10 0.00210034 8.10186e-14)
(-8.47085e-10 0.00211013 1.46059e-13)
(-8.5234e-10 0.00212091 1.48687e-13)
(-8.57599e-10 0.00213168 1.46294e-13)
(-8.6193e-10 0.00214147 8.12742e-14)
(-8.60148e-10 0.00214384 8.10417e-14)
(-8.64471e-10 0.00215364 1.46016e-13)
(-8.69746e-10 0.00216441 1.48704e-13)
(-8.74974e-10 0.00217519 1.46242e-13)
(-8.79347e-10 0.00218498 8.13026e-14)
(-8.77512e-10 0.00218735 8.09912e-14)
(-8.81903e-10 0.00219714 1.46056e-13)
(-8.87092e-10 0.00220792 1.48628e-13)
(-8.92426e-10 0.00221869 1.46297e-13)
(-8.9667e-10 0.00222848 8.1207e-14)
(-8.94991e-10 0.00223085 8.10871e-14)
(-8.99193e-10 0.00224065 1.45923e-13)
(-9.04611e-10 0.00225142 1.48759e-13)
(-9.09668e-10 0.0022622 1.46108e-13)
(-9.14245e-10 0.00227199 8.1404e-14)
(-9.12167e-10 0.00227436 8.08338e-14)
(-9.16849e-10 0.00228415 1.46209e-13)
(-9.21689e-10 0.00229493 1.48388e-13)
(-9.27441e-10 0.0023057 1.4652e-13)
(-9.31183e-10 0.00231549 8.08811e-14)
(-9.30107e-10 0.00231787 8.14489e-14)
(-9.33587e-10 0.00232766 1.45493e-13)
(-9.39874e-10 0.00233844 1.49948e-13)
(-9.4397e-10 0.0023493 1.50087e-13)
(-9.50259e-10 0.00236008 1.4583e-13)
(-9.53742e-10 0.00236988 8.17605e-14)
(-9.52659e-10 0.00237225 8.07032e-14)
(-9.56405e-10 0.00238204 1.46416e-13)
(-9.62153e-10 0.00239282 1.48493e-13)
(-9.66999e-10 0.00240359 1.46529e-13)
(-9.71679e-10 0.00241338 8.11228e-14)
(-9.696e-10 0.00241575 8.12155e-14)
(-9.74176e-10 0.00242555 1.45972e-13)
(-9.79232e-10 0.00243632 1.48836e-13)
(-9.84654e-10 0.0024471 1.46215e-13)
(-9.88854e-10 0.00245689 8.13599e-14)
(-9.87176e-10 0.00245926 8.1005e-14)
(-9.91417e-10 0.00246905 1.4613e-13)
(-9.96753e-10 0.00247983 1.48682e-13)
(-1.00194e-09 0.0024906 1.46315e-13)
(-1.00634e-09 0.00250039 8.12563e-14)
(-1.00449e-09 0.00250276 8.10757e-14)
(-1.00888e-09 0.00251256 1.46057e-13)
(-1.01409e-09 0.00252333 1.48717e-13)
(-1.01938e-09 0.00253411 1.46263e-13)
(-1.02369e-09 0.0025439 8.12734e-14)
(-1.02193e-09 0.00254627 8.10535e-14)
(-1.02623e-09 0.00255607 1.46054e-13)
(-1.03152e-09 0.00256684 1.48704e-13)
(-1.03674e-09 0.00257761 1.4624e-13)
(-1.04112e-09 0.0025874 8.12819e-14)
(-1.03928e-09 0.00258978 8.10215e-14)
(-1.04368e-09 0.00259957 1.4608e-13)
(-1.04886e-09 0.00261035 1.48643e-13)
(-1.0542e-09 0.00262112 1.46287e-13)
(-1.05844e-09 0.00263091 8.11968e-14)
(-1.05676e-09 0.00263328 8.11107e-14)
(-1.06096e-09 0.00264308 1.45955e-13)
(-1.06638e-09 0.00265385 1.4877e-13)
(-1.07144e-09 0.00266463 1.46105e-13)
(-1.07601e-09 0.00267442 8.13921e-14)
(-1.07393e-09 0.00267679 8.08605e-14)
(-1.07862e-09 0.00268658 1.4624e-13)
(-1.08346e-09 0.00269736 1.48403e-13)
(-1.08921e-09 0.00270813 1.46518e-13)
(-1.09295e-09 0.00271792 8.08718e-14)
(-1.09188e-09 0.00272029 8.14753e-14)
(-1.09536e-09 0.00273009 1.45525e-13)
(-1.10164e-09 0.00274087 1.49964e-13)
(-1.10574e-09 0.00275173 1.50084e-13)
(-1.11203e-09 0.00276251 1.45811e-13)
(-1.11551e-09 0.0027723 8.1742e-14)
(-1.11443e-09 0.00277468 8.0719e-14)
(-1.11817e-09 0.00278447 1.4643e-13)
(-1.12392e-09 0.00279524 1.48491e-13)
(-1.12877e-09 0.00280602 1.46514e-13)
(-1.13345e-09 0.00281581 8.11054e-14)
(-1.13137e-09 0.00281818 8.12329e-14)
(-1.13594e-09 0.00282798 1.45987e-13)
(-1.141e-09 0.00283875 1.48839e-13)
(-1.14642e-09 0.00284952 1.462e-13)
(-1.15063e-09 0.00285932 8.1347e-14)
(-1.14894e-09 0.00286169 8.10196e-14)
(-1.15319e-09 0.00287148 1.4615e-13)
(-1.15852e-09 0.00288226 1.48682e-13)
(-1.16371e-09 0.00289303 1.46308e-13)
(-1.1681e-09 0.00290282 8.12376e-14)
(-1.16627e-09 0.00290519 8.10996e-14)
(-1.17064e-09 0.00291499 1.46068e-13)
(-1.17587e-09 0.00292576 1.48731e-13)
(-1.18114e-09 0.00293654 1.46243e-13)
(-1.18547e-09 0.00294633 8.12745e-14)
(-1.18368e-09 0.0029487 8.10556e-14)
(-1.18802e-09 0.00295849 1.46093e-13)
(-1.19327e-09 0.00296927 1.48688e-13)
(-1.19853e-09 0.00298004 1.46261e-13)
(-1.20286e-09 0.00298983 8.12382e-14)
(-1.20108e-09 0.0029922 8.10797e-14)
(-1.2054e-09 0.003002 1.46053e-13)
(-1.21068e-09 0.00301277 1.48708e-13)
(-1.21591e-09 0.00302355 1.46214e-13)
(-1.22028e-09 0.00303334 8.12701e-14)
(-1.21844e-09 0.00303571 8.10303e-14)
(-1.22283e-09 0.0030455 1.46096e-13)
(-1.22802e-09 0.00305628 1.48637e-13)
(-1.23336e-09 0.00306705 1.46274e-13)
(-1.2376e-09 0.00307684 8.11779e-14)
(-1.23592e-09 0.00307922 8.1127e-14)
(-1.24012e-09 0.00308901 1.45966e-13)
(-1.24554e-09 0.00309979 1.48771e-13)
(-1.2506e-09 0.00311056 1.4609e-13)
(-1.25518e-09 0.00312035 8.13781e-14)
(-1.2531e-09 0.00312272 8.08745e-14)
(-1.25778e-09 0.00313252 1.46255e-13)
(-1.26262e-09 0.00314329 1.48403e-13)
(-1.26837e-09 0.00315406 1.46507e-13)
(-1.27212e-09 0.00316386 8.08574e-14)
(-1.27104e-09 0.00316623 8.14914e-14)
(-1.27452e-09 0.00317602 1.45539e-13)
(-1.28081e-09 0.0031868 1.49967e-13)
(-1.2849e-09 0.00319767 1.5007e-13)
(-1.29119e-09 0.00320845 1.45786e-13)
(-1.29467e-09 0.00321824 8.17202e-14)
(-1.29359e-09 0.00322061 8.07268e-14)
(-1.29734e-09 0.0032304 1.4643e-13)
(-1.30309e-09 0.00324118 1.4848e-13)
(-1.30793e-09 0.00325195 1.46489e-13)
(-1.31261e-09 0.00326174 8.10867e-14)
(-1.31053e-09 0.00326412 8.12396e-14)
(-1.31511e-09 0.00327391 1.4599e-13)
(-1.32016e-09 0.00328468 1.48827e-13)
(-1.32559e-09 0.00329546 1.4618e-13)
(-1.32979e-09 0.00330525 8.13268e-14)
(-1.32811e-09 0.00330762 8.10303e-14)
(-1.33235e-09 0.00331742 1.4615e-13)
(-1.33769e-09 0.00332819 1.48677e-13)
(-1.34287e-09 0.00333896 1.46284e-13)
(-1.34727e-09 0.00334876 8.12259e-14)
(-1.34542e-09 0.00335113 8.11022e-14)
(-1.34981e-09 0.00336092 1.4608e-13)
(-1.35502e-09 0.0033717 1.48715e-13)
(-1.36032e-09 0.00338247 1.46237e-13)
(-1.36462e-09 0.00339226 8.12458e-14)
(-1.36286e-09 0.00339463 8.10808e-14)
(-1.36716e-09 0.00340443 1.4608e-13)
(-1.37245e-09 0.0034152 1.48705e-13)
(-1.37767e-09 0.00342598 1.46218e-13)
(-1.38205e-09 0.00343577 8.12567e-14)
(-1.38021e-09 0.00343814 8.10499e-14)
(-1.38461e-09 0.00344793 1.46108e-13)
(-1.38979e-09 0.00345871 1.48648e-13)
(-1.39513e-09 0.00346948 1.46269e-13)
(-1.39937e-09 0.00347927 8.11742e-14)
(-1.39769e-09 0.00348164 8.11398e-14)
(-1.40189e-09 0.00349144 1.45985e-13)
(-1.40731e-09 0.00350221 1.48778e-13)
(-1.41237e-09 0.00351299 1.4609e-13)
(-1.41695e-09 0.00352278 8.13718e-14)
(-1.41487e-09 0.00352515 8.08903e-14)
(-1.41955e-09 0.00353494 1.46272e-13)
(-1.42439e-09 0.00354572 1.48413e-13)
(-1.43014e-09 0.00355649 1.46507e-13)
(-1.43388e-09 0.00356628 8.08531e-14)
(-1.43281e-09 0.00356866 8.15067e-14)
(-1.43629e-09 0.00357845 1.45558e-13)
(-1.44258e-09 0.00358923 1.49978e-13)
(-1.44667e-09 0.00360009 1.50069e-13)
(-1.45296e-09 0.00361087 1.45777e-13)
(-1.45644e-09 0.00362067 8.17106e-14)
(-1.45536e-09 0.00362304 8.07362e-14)
(-1.45911e-09 0.00363283 1.4644e-13)
(-1.46485e-09 0.00364361 1.4848e-13)
(-1.4697e-09 0.00365438 1.46482e-13)
(-1.47438e-09 0.00366417 8.10771e-14)
(-1.4723e-09 0.00366654 8.12506e-14)
(-1.47688e-09 0.00367634 1.45999e-13)
(-1.48193e-09 0.00368711 1.48831e-13)
(-1.48735e-09 0.00369789 1.46172e-13)
(-1.49156e-09 0.00370768 8.13208e-14)
(-1.48988e-09 0.00371005 8.10382e-14)
(-1.49412e-09 0.00371984 1.46164e-13)
(-1.49945e-09 0.00373062 1.48676e-13)
(-1.50464e-09 0.00374139 1.46283e-13)
(-1.50904e-09 0.00375118 8.12135e-14)
(-1.5072e-09 0.00375356 8.11193e-14)
(-1.51157e-09 0.00376335 1.46084e-13)
(-1.5168e-09 0.00377412 1.48728e-13)
(-1.52208e-09 0.0037849 1.46222e-13)
(-1.5264e-09 0.00379469 8.12526e-14)
(-1.52462e-09 0.00379706 8.1076e-14)
(-1.52895e-09 0.00380686 1.46111e-13)
(-1.5342e-09 0.00381763 1.48688e-13)
(-1.53946e-09 0.0038284 1.46242e-13)
(-1.54379e-09 0.0038382 8.12181e-14)
(-1.54201e-09 0.00384057 8.1101e-14)
(-1.54634e-09 0.00385036 1.46074e-13)
(-1.55161e-09 0.00386114 1.48711e-13)
(-1.55684e-09 0.00387191 1.46198e-13)
(-1.56121e-09 0.0038817 8.12518e-14)
(-1.55938e-09 0.00388407 8.10523e-14)
(-1.56377e-09 0.00389387 1.46118e-13)
(-1.56896e-09 0.00390464 1.48641e-13)
(-1.57429e-09 0.00391542 1.46261e-13)
(-1.57853e-09 0.00392521 8.11614e-14)
(-1.57686e-09 0.00392758 8.11499e-14)
(-1.58106e-09 0.00393737 1.4599e-13)
(-1.58648e-09 0.00394815 1.48778e-13)
(-1.59153e-09 0.00395892 1.46079e-13)
(-1.59611e-09 0.00396871 8.13634e-14)
(-1.59403e-09 0.00397108 8.08977e-14)
(-1.59871e-09 0.00398088 1.46281e-13)
(-1.60355e-09 0.00399165 1.48412e-13)
(-1.60931e-09 0.00400243 1.46499e-13)
(-1.61305e-09 0.00401222 8.08436e-14)
(-1.61197e-09 0.00401459 8.15161e-14)
(-1.61545e-09 0.00402438 1.45566e-13)
(-1.62174e-09 0.00403517 1.49979e-13)
(-1.62583e-09 0.00404603 1.5006e-13)
(-1.63212e-09 0.00405681 1.45761e-13)
(-1.63561e-09 0.0040666 8.16966e-14)
(-1.63452e-09 0.00406897 8.07406e-14)
(-1.63827e-09 0.00407877 1.46438e-13)
(-1.64402e-09 0.00408954 1.48473e-13)
(-1.64886e-09 0.00410031 1.46466e-13)
(-1.65354e-09 0.00411011 8.10657e-14)
(-1.65146e-09 0.00411248 8.12537e-14)
(-1.65604e-09 0.00412227 1.46001e-13)
(-1.6611e-09 0.00413305 1.48822e-13)
(-1.66652e-09 0.00414382 1.4616e-13)
(-1.67072e-09 0.00415361 8.13071e-14)
(-1.66904e-09 0.00415598 8.10453e-14)
(-1.67328e-09 0.00416578 1.46163e-13)
(-1.67862e-09 0.00417655 1.48674e-13)
(-1.6838e-09 0.00418733 1.46266e-13)
(-1.6882e-09 0.00419712 8.12079e-14)
(-1.68636e-09 0.00419949 8.11179e-14)
(-1.69074e-09 0.00420928 1.46094e-13)
(-1.69595e-09 0.00422006 1.48714e-13)
(-1.70125e-09 0.00423083 1.46221e-13)
(-1.70555e-09 0.00424062 8.12292e-14)
(-1.70379e-09 0.004243 8.10973e-14)
(-1.7081e-09 0.00425279 1.46095e-13)
(-1.71339e-09 0.00426356 1.48707e-13)
(-1.7186e-09 0.00427434 1.46204e-13)
(-1.72299e-09 0.00428413 8.12416e-14)
(-1.72114e-09 0.0042865 8.1067e-14)
(-1.72554e-09 0.00429629 1.46125e-13)
(-1.73072e-09 0.00430707 1.48651e-13)
(-1.73606e-09 0.00431784 1.46257e-13)
(-1.7403e-09 0.00432764 8.11603e-14)
(-1.73863e-09 0.00433001 8.11576e-14)
(-1.74283e-09 0.0043398 1.46003e-13)
(-1.74825e-09 0.00435058 1.48783e-13)
(-1.7533e-09 0.00436135 1.4608e-13)
(-1.75788e-09 0.00437114 8.13595e-14)
(-1.7558e-09 0.00437351 8.09085e-14)
(-1.76048e-09 0.00438331 1.46293e-13)
(-1.76532e-09 0.00439408 1.4842e-13)
(-1.77107e-09 0.00440485 1.465e-13)
(-1.77482e-09 0.00441465 8.08415e-14)
(-1.77374e-09 0.00441702 8.15261e-14)
(-1.77722e-09 0.00442681 1.45579e-13)
(-1.78351e-09 0.00443759 1.49986e-13)
(-1.7876e-09 0.00444846 1.5006e-13)
(-1.79389e-09 0.00445924 1.45756e-13)
(-1.79738e-09 0.00446903 8.16911e-14)
(-1.79629e-09 0.0044714 8.07469e-14)
(-1.80004e-09 0.00448119 1.46446e-13)
(-1.80579e-09 0.00449197 1.48474e-13)
(-1.81063e-09 0.00450274 1.46462e-13)
(-1.81531e-09 0.00451253 8.10596e-14)
(-1.81323e-09 0.00451491 8.12615e-14)
(-1.81781e-09 0.0045247 1.46007e-13)
(-1.82287e-09 0.00453547 1.48825e-13)
(-1.82829e-09 0.00454625 1.46155e-13)
(-1.83249e-09 0.00455604 8.13044e-14)
(-1.83081e-09 0.00455841 8.105e-14)
(-1.83505e-09 0.00456821 1.46173e-13)
(-1.84039e-09 0.00457898 1.48673e-13)
(-1.84558e-09 0.00458975 1.46268e-13)
(-1.84997e-09 0.00459955 8.11984e-14)
(-1.84813e-09 0.00460192 8.11316e-14)
(-1.8525e-09 0.00461171 1.46095e-13)
(-1.85773e-09 0.00462249 1.48727e-13)
(-1.86301e-09 0.00463326 1.46208e-13)
(-1.86733e-09 0.00464305 8.12386e-14)
(-1.86555e-09 0.00464542 8.10891e-14)
(-1.86988e-09 0.00465522 1.46123e-13)
(-1.87514e-09 0.00466599 1.48688e-13)
(-1.8804e-09 0.00467677 1.4623e-13)
(-1.88473e-09 0.00468656 8.12053e-14)
(-1.88295e-09 0.00468893 8.11146e-14)
(-1.88727e-09 0.00469872 1.46087e-13)
(-1.89254e-09 0.0047095 1.48712e-13)
(-1.89777e-09 0.00472027 1.46188e-13)
(-1.90214e-09 0.00473006 8.12401e-14)
(-1.90031e-09 0.00473243 8.10665e-14)
(-1.9047e-09 0.00474223 1.46133e-13)
(-1.90989e-09 0.004753 1.48645e-13)
(-1.91522e-09 0.00476378 1.46252e-13)
(-1.91947e-09 0.00477357 8.11508e-14)
(-1.91779e-09 0.00477594 8.11645e-14)
(-1.92199e-09 0.00478573 1.46006e-13)
(-1.92741e-09 0.00479651 1.48782e-13)
(-1.93247e-09 0.00480728 1.46072e-13)
(-1.93704e-09 0.00481707 8.13538e-14)
(-1.93496e-09 0.00481945 8.09129e-14)
(-1.93965e-09 0.00482924 1.46297e-13)
(-1.94449e-09 0.00484001 1.48418e-13)
(-1.95024e-09 0.00485079 1.46494e-13)
(-1.95398e-09 0.00486058 8.08348e-14)
(-1.9529e-09 0.00486295 8.15321e-14)
(-1.95638e-09 0.00487275 1.45583e-13)
(-1.96267e-09 0.00488353 1.49986e-13)
(-1.96677e-09 0.00489439 1.50053e-13)
(-1.97306e-09 0.00490517 1.45745e-13)
(-1.97654e-09 0.00491496 8.16813e-14)
(-1.97546e-09 0.00491733 8.07496e-14)
(-1.9792e-09 0.00492713 1.46444e-13)
(-1.98495e-09 0.0049379 1.48468e-13)
(-1.9898e-09 0.00494868 1.4645e-13)
(-1.99448e-09 0.00495847 8.10517e-14)
(-1.9924e-09 0.00496084 8.1263e-14)
(-1.99697e-09 0.00497063 1.46008e-13)
(-2.00203e-09 0.00498141 1.48819e-13)
(-2.00745e-09 0.00499218 1.46146e-13)
(-2.01165e-09 0.00500197 8.12942e-14)
(-2.00997e-09 0.00500435 8.10552e-14)
(-2.01421e-09 0.00501414 1.46171e-13)
(-2.01955e-09 0.00502491 1.48672e-13)
(-2.02474e-09 0.00503569 1.46254e-13)
(-2.02914e-09 0.00504548 8.11958e-14)
(-2.02729e-09 0.00504785 8.11285e-14)
(-2.03167e-09 0.00505765 1.46103e-13)
(-2.03689e-09 0.00506842 1.48714e-13)
(-2.04218e-09 0.00507919 1.4621e-13)
(-2.04648e-09 0.00508899 8.12182e-14)
(-2.04473e-09 0.00509136 8.11081e-14)
(-2.04903e-09 0.00510115 1.46106e-13)
(-2.05432e-09 0.00511193 1.48707e-13)
(-2.05953e-09 0.0051227 1.46195e-13)
(-2.06392e-09 0.00513249 8.12314e-14)
(-2.06207e-09 0.00513486 8.10786e-14)
(-2.06647e-09 0.00514466 1.46137e-13)
(-2.07166e-09 0.00515543 1.48652e-13)
(-2.077e-09 0.00516621 1.4625e-13)
(-2.08124e-09 0.005176 8.11511e-14)
(-2.07956e-09 0.00517837 8.11695e-14)
(-2.08376e-09 0.00518816 1.46016e-13)
(-2.08918e-09 0.00519894 1.48786e-13)
(-2.09423e-09 0.00520971 1.46074e-13)
(-2.09881e-09 0.0052195 8.13511e-14)
(-2.09673e-09 0.00522187 8.09209e-14)
(-2.10142e-09 0.00523167 1.46306e-13)
(-2.10626e-09 0.00524244 1.48424e-13)
(-2.11201e-09 0.00525322 1.46495e-13)
(-2.11575e-09 0.00526301 8.08338e-14)
(-2.11467e-09 0.00526538 8.15392e-14)
(-2.11815e-09 0.00527517 1.45593e-13)
(-2.12444e-09 0.00528596 1.49991e-13)
(-2.12854e-09 0.00529682 1.50054e-13)
(-2.13483e-09 0.0053076 1.45741e-13)
(-2.13831e-09 0.00531739 8.16779e-14)
(-2.13723e-09 0.00531976 8.07541e-14)
(-2.14097e-09 0.00532956 1.4645e-13)
(-2.14672e-09 0.00534033 1.48469e-13)
(-2.15157e-09 0.0053511 1.46449e-13)
(-2.15625e-09 0.0053609 8.10475e-14)
(-2.15417e-09 0.00536327 8.12691e-14)
(-2.15874e-09 0.00537306 1.46012e-13)
(-2.1638e-09 0.00538384 1.48822e-13)
(-2.16922e-09 0.00539461 1.46142e-13)
(-2.17342e-09 0.0054044 8.12932e-14)
(-2.17174e-09 0.00540677 8.1058e-14)
(-2.17599e-09 0.00541657 1.4618e-13)
(-2.18132e-09 0.00542734 1.48671e-13)
(-2.18651e-09 0.00543812 1.46257e-13)
(-2.1909e-09 0.00544791 8.11879e-14)
(-2.18907e-09 0.00545028 8.11402e-14)
(-2.19344e-09 0.00546007 1.46102e-13)
(-2.19867e-09 0.00547085 1.48726e-13)
(-2.20394e-09 0.00548162 1.46199e-13)
(-2.20827e-09 0.00549141 8.1229e-14)
(-2.20648e-09 0.00549379 8.1098e-14)
(-2.21081e-09 0.00550358 1.46132e-13)
(-2.21607e-09 0.00551435 1.48688e-13)
(-2.22133e-09 0.00552513 1.46222e-13)
(-2.22566e-09 0.00553492 8.11964e-14)
(-2.22388e-09 0.00553729 8.11241e-14)
(-2.2282e-09 0.00554708 1.46096e-13)
(-2.23348e-09 0.00555786 1.48713e-13)
(-2.2387e-09 0.00556863 1.46181e-13)
(-2.24308e-09 0.00557843 8.1232e-14)
(-2.24124e-09 0.0055808 8.10763e-14)
(-2.24563e-09 0.00559059 1.46143e-13)
(-2.25082e-09 0.00560137 1.48647e-13)
(-2.25616e-09 0.00561214 1.46247e-13)
(-2.2604e-09 0.00562193 8.11433e-14)
(-2.25872e-09 0.0056243 8.11749e-14)
(-2.26292e-09 0.0056341 1.46016e-13)
(-2.26834e-09 0.00564487 1.48785e-13)
(-2.2734e-09 0.00565565 1.46067e-13)
(-2.27798e-09 0.00566544 8.13472e-14)
(-2.2759e-09 0.00566781 8.09234e-14)
(-2.28058e-09 0.0056776 1.46309e-13)
(-2.28542e-09 0.00568838 1.48422e-13)
(-2.29117e-09 0.00569915 1.46491e-13)
(-2.29491e-09 0.00570894 8.08285e-14)
(-2.29384e-09 0.00571131 8.15434e-14)
(-2.29732e-09 0.00572111 1.45595e-13)
(-2.30361e-09 0.00573189 1.49991e-13)
(-2.3077e-09 0.00574275 1.50048e-13)
(-2.31399e-09 0.00575353 1.45733e-13)
(-2.31747e-09 0.00576332 8.16704e-14)
(-2.31639e-09 0.0057657 8.07561e-14)
(-2.32014e-09 0.00577549 1.46448e-13)
(-2.32588e-09 0.00578626 1.48465e-13)
(-2.33073e-09 0.00579704 1.46439e-13)
(-2.33541e-09 0.00580683 8.1042e-14)
(-2.33333e-09 0.0058092 8.12695e-14)
(-2.33791e-09 0.005819 1.46013e-13)
(-2.34296e-09 0.00582977 1.48816e-13)
(-2.34838e-09 0.00584054 1.46137e-13)
(-2.35258e-09 0.00585034 8.12849e-14)
(-2.35091e-09 0.00585271 8.10623e-14)
(-2.35515e-09 0.0058625 1.46177e-13)
(-2.36049e-09 0.00587328 1.48671e-13)
(-2.36567e-09 0.00588405 1.46245e-13)
(-2.37007e-09 0.00589384 8.11874e-14)
(-2.36822e-09 0.00589621 8.11358e-14)
(-2.37261e-09 0.00590601 1.4611e-13)
(-2.37782e-09 0.00591678 1.48713e-13)
(-2.38311e-09 0.00592756 1.46203e-13)
(-2.38742e-09 0.00593735 8.12103e-14)
(-2.38566e-09 0.00593972 8.11161e-14)
(-2.38996e-09 0.00594951 1.46113e-13)
(-2.39525e-09 0.00596029 1.48708e-13)
(-2.40047e-09 0.00597106 1.46189e-13)
(-2.40485e-09 0.00598085 8.12242e-14)
(-2.40301e-09 0.00598323 8.10867e-14)
(-2.40741e-09 0.00599302 1.46145e-13)
(-2.41259e-09 0.00600379 1.48654e-13)
(-2.41793e-09 0.00601457 1.46244e-13)
(-2.42217e-09 0.00602436 8.11444e-14)
(-2.42049e-09 0.00602673 8.11782e-14)
(-2.42469e-09 0.00603652 1.46025e-13)
(-2.43011e-09 0.0060473 1.48788e-13)
(-2.43517e-09 0.00605807 1.4607e-13)
(-2.43975e-09 0.00606787 8.13452e-14)
(-2.43767e-09 0.00607024 8.09297e-14)
(-2.44235e-09 0.00608003 1.46316e-13)
(-2.44719e-09 0.0060908 1.48427e-13)
(-2.45294e-09 0.00610158 1.46492e-13)
(-2.45668e-09 0.00611137 8.0828e-14)
(-2.45561e-09 0.00611374 8.15487e-14)
(-2.45909e-09 0.00612354 1.45603e-13)
(-2.46538e-09 0.00613432 1.49996e-13)
(-2.46947e-09 0.00614518 1.5005e-13)
(-2.47576e-09 0.00615596 1.45731e-13)
(-2.47924e-09 0.00616575 8.16682e-14)
(-2.47816e-09 0.00616812 8.07595e-14)
(-2.48191e-09 0.00617792 1.46452e-13)
(-2.48765e-09 0.00618869 1.48466e-13)
(-2.4925e-09 0.00619947 1.46439e-13)
(-2.49718e-09 0.00620926 8.10389e-14)
(-2.4951e-09 0.00621163 8.12745e-14)
(-2.49968e-09 0.00622142 1.46016e-13)
(-2.50473e-09 0.0062322 1.48819e-13)
(-2.51015e-09 0.00624297 1.46134e-13)
(-2.51436e-09 0.00625276 8.12849e-14)
(-2.51267e-09 0.00625514 8.1064e-14)
(-2.51692e-09 0.00626493 1.46184e-13)
(-2.52225e-09 0.0062757 1.48669e-13)
(-2.52744e-09 0.00628648 1.46249e-13)
(-2.53183e-09 0.00629627 8.11804e-14)
(-2.53e-09 0.00629864 8.11464e-14)
(-2.53437e-09 0.00630844 1.46108e-13)
(-2.5396e-09 0.00631921 1.48725e-13)
(-2.54488e-09 0.00632998 1.46192e-13)
(-2.5492e-09 0.00633978 8.12219e-14)
(-2.54742e-09 0.00634215 8.11047e-14)
(-2.55175e-09 0.00635194 1.46138e-13)
(-2.557e-09 0.00636272 1.48688e-13)
(-2.56226e-09 0.00637349 1.46216e-13)
(-2.56659e-09 0.00638328 8.11899e-14)
(-2.56481e-09 0.00638565 8.11309e-14)
(-2.56913e-09 0.00639545 1.46103e-13)
(-2.57441e-09 0.00640622 1.48714e-13)
(-2.57964e-09 0.006417 1.46176e-13)
(-2.58401e-09 0.00642679 8.12259e-14)
(-2.58218e-09 0.00642916 8.10837e-14)
(-2.58657e-09 0.00643895 1.4615e-13)
(-2.59176e-09 0.00644973 1.48648e-13)
(-2.59709e-09 0.0064605 1.46242e-13)
(-2.60133e-09 0.00647029 8.11379e-14)
(-2.59965e-09 0.00647266 8.11824e-14)
(-2.60386e-09 0.00648246 1.46025e-13)
(-2.60928e-09 0.00649323 1.48788e-13)
(-2.61433e-09 0.00650401 1.46064e-13)
(-2.61891e-09 0.0065138 8.13421e-14)
(-2.61683e-09 0.00651617 8.09313e-14)
(-2.62151e-09 0.00652596 1.46318e-13)
(-2.62635e-09 0.00653674 1.48425e-13)
(-2.6321e-09 0.00654751 1.46488e-13)
(-2.63585e-09 0.0065573 8.08239e-14)
(-2.63477e-09 0.00655968 8.15517e-14)
(-2.63825e-09 0.00656947 1.45604e-13)
(-2.64454e-09 0.00658025 1.49995e-13)
(-2.64863e-09 0.00659111 1.50045e-13)
(-2.65492e-09 0.00660189 1.45724e-13)
(-2.6584e-09 0.00661169 8.16625e-14)
(-2.65732e-09 0.00661406 8.07607e-14)
(-2.66107e-09 0.00662385 1.46451e-13)
(-2.66682e-09 0.00663463 1.48462e-13)
(-2.67166e-09 0.0066454 1.46431e-13)
(-2.67634e-09 0.00665519 8.10346e-14)
(-2.67426e-09 0.00665756 8.12745e-14)
(-2.67884e-09 0.00666736 1.46016e-13)
(-2.6839e-09 0.00667813 1.48814e-13)
(-2.68932e-09 0.00668891 1.46129e-13)
(-2.69352e-09 0.0066987 8.12781e-14)
(-2.69184e-09 0.00670107 8.10675e-14)
(-2.69608e-09 0.00671086 1.46181e-13)
(-2.70142e-09 0.00672164 1.4867e-13)
(-2.7066e-09 0.00673241 1.46239e-13)