/*--------------------------------*- C++ -*----------------------------------*\
| =========                 |                                                 |
| \\      /  F ield         | OpenFOAM: The Open Source CFD Toolbox           |
|  \\    /   O peration     | Version:  2206                                  |
|   \\  /    A nd           | Website:  www.openfoam.com                      |
|    \\/     M anipulation  |                                                 |
\*---------------------------------------------------------------------------*/
FoamFile
{
    version     2.0;
    format      ascii;
    arch        "LSB;label=32;scalar=64";
    class       volScalarField;
    location    "370";
    object      p;
}
// * * * * * * * * * * * * * * * * * * * * * * * * * * * * * * * * * * * * * //

dimensions      [0 2 -2 0 0 0 0];

internalField   nonuniform List<scalar> 
100000
(
-1.24651e-09
-2.17754e-08
-3.10118e-08
-3.08374e-08
-2.65415e-08
-1.7514e-08
-1.39368e-08
-1.08367e-09
9.76889e-09
2.82539e-08
4.49027e-08
6.13727e-08
8.30572e-08
1.0539e-07
1.32748e-07
1.60341e-07
1.85524e-07
2.18071e-07
2.4894e-07
2.87251e-07
3.23006e-07
3.59417e-07
3.99677e-07
4.42254e-07
4.87644e-07
5.36378e-07
5.86354e-07
6.33198e-07
6.87713e-07
7.40534e-07
8.00408e-07
8.58428e-07
9.15871e-07
9.7887e-07
1.0419e-06
1.11055e-06
1.17852e-06
1.24494e-06
1.31771e-06
1.38985e-06
1.46816e-06
1.5453e-06
1.6213e-06
1.70332e-06
1.78497e-06
1.87256e-06
1.95918e-06
2.04449e-06
2.13596e-06
2.22692e-06
2.32396e-06
2.41988e-06
2.51464e-06
2.61542e-06
2.71583e-06
2.82216e-06
2.92755e-06
3.03157e-06
3.14184e-06
3.25147e-06
3.36735e-06
3.48188e-06
3.59553e-06
3.71486e-06
3.83422e-06
3.95903e-06
4.08344e-06
4.20583e-06
4.33527e-06
4.46309e-06
4.59834e-06
4.73082e-06
4.86411e-06
5.00107e-06
5.14046e-06
5.28249e-06
5.42798e-06
5.57451e-06
5.71806e-06
5.86917e-06
6.0186e-06
6.17507e-06
6.32961e-06
6.48364e-06
6.64317e-06
6.80272e-06
6.96791e-06
7.13232e-06
7.29527e-06
7.46451e-06
7.63312e-06
7.80791e-06
7.98148e-06
8.15394e-06
8.33241e-06
8.51046e-06
8.69453e-06
8.8775e-06
9.05928e-06
9.24711e-06
9.43453e-06
9.62792e-06
9.82028e-06
1.00113e-05
1.02086e-05
1.04053e-05
1.06082e-05
1.08097e-05
1.10103e-05
1.12167e-05
1.1423e-05
1.16348e-05
1.18462e-05
1.20556e-05
1.2272e-05
1.24868e-05
1.27091e-05
1.29285e-05
1.31488e-05
1.33727e-05
1.35991e-05
1.38281e-05
1.40606e-05
1.4294e-05
1.45246e-05
1.47626e-05
1.4999e-05
1.52425e-05
1.54839e-05
1.57249e-05
1.59714e-05
1.62179e-05
1.64701e-05
1.67214e-05
1.69713e-05
1.72275e-05
1.74831e-05
1.77448e-05
1.80053e-05
1.82648e-05
1.85302e-05
1.87952e-05
1.90662e-05
1.93361e-05
1.96048e-05
1.98796e-05
2.01539e-05
2.04343e-05
2.07135e-05
2.09916e-05
2.12757e-05
2.15594e-05
2.18491e-05
2.21378e-05
2.24251e-05
2.27187e-05
2.30116e-05
2.33108e-05
2.36085e-05
2.39055e-05
2.42081e-05
2.45107e-05
2.48188e-05
2.51265e-05
2.54321e-05
2.57448e-05
2.60559e-05
2.63744e-05
2.66901e-05
2.70067e-05
2.73269e-05
2.76495e-05
2.79748e-05
2.83035e-05
2.86333e-05
2.89601e-05
2.92944e-05
2.96271e-05
2.99668e-05
3.03045e-05
3.06418e-05
3.09845e-05
3.13273e-05
3.16757e-05
3.20233e-05
3.23695e-05
3.2722e-05
3.30738e-05
3.34318e-05
3.37885e-05
3.41442e-05
3.45059e-05
3.48672e-05
3.52344e-05
3.56006e-05
3.59656e-05
3.63366e-05
3.67072e-05
3.70838e-05
3.74594e-05
3.78336e-05
3.82141e-05
3.85939e-05
3.898e-05
3.93647e-05
3.97486e-05
4.01381e-05
4.05276e-05
4.09226e-05
4.13172e-05
4.17098e-05
4.21094e-05
4.25073e-05
4.29128e-05
4.33154e-05
4.37189e-05
4.41259e-05
4.45355e-05
4.49477e-05
4.53633e-05
4.578e-05
4.61937e-05
4.66149e-05
4.70345e-05
4.74611e-05
4.78858e-05
4.83099e-05
4.87396e-05
4.91693e-05
4.96046e-05
5.00391e-05
5.04722e-05
5.09115e-05
5.13503e-05
5.17952e-05
5.22388e-05
5.26814e-05
5.313e-05
5.35782e-05
5.40323e-05
5.44854e-05
5.49373e-05
5.53952e-05
5.58527e-05
5.63163e-05
5.67786e-05
5.72399e-05
5.77072e-05
5.8174e-05
5.86469e-05
5.91187e-05
5.95892e-05
6.00659e-05
6.0542e-05
6.10243e-05
6.15052e-05
6.19853e-05
6.24711e-05
6.29569e-05
6.34481e-05
6.39389e-05
6.44277e-05
6.49236e-05
6.54178e-05
6.59195e-05
6.64183e-05
6.69181e-05
6.74214e-05
6.79272e-05
6.84356e-05
6.89475e-05
6.94604e-05
6.99704e-05
7.04878e-05
7.10036e-05
7.15265e-05
7.20474e-05
7.25678e-05
7.30937e-05
7.36196e-05
7.41512e-05
7.46819e-05
7.52113e-05
7.57469e-05
7.62818e-05
7.6823e-05
7.73629e-05
7.79017e-05
7.84465e-05
7.89909e-05
7.95414e-05
8.00906e-05
8.06388e-05
8.1193e-05
8.17467e-05
8.23065e-05
8.28651e-05
8.34225e-05
8.39862e-05
8.45491e-05
8.51184e-05
8.56862e-05
8.62532e-05
8.68259e-05
8.73985e-05
8.79767e-05
8.85544e-05
8.91301e-05
8.97129e-05
9.0294e-05
9.08825e-05
9.14683e-05
9.20549e-05
9.26451e-05
9.32378e-05
9.38331e-05
9.44319e-05
9.50317e-05
9.56286e-05
9.62329e-05
9.68356e-05
9.74454e-05
9.80532e-05
9.86605e-05
9.92733e-05
9.98861e-05
0.000100505
0.000101122
0.000101738
0.000102361
0.000102983
0.000103611
0.000104238
0.000104863
0.000105495
0.000106126
0.000106764
0.0001074
0.000108035
0.000108676
0.000109317
0.000109963
0.000110609
0.000111253
0.000111904
0.000112554
0.00011321
0.000113864
0.000114518
0.000115178
0.000115837
0.000116503
0.000117167
0.00011783
0.000118499
0.000119168
0.000119842
0.000120516
0.000121188
0.000121867
0.000122544
0.000123229
0.000123911
0.000124594
0.00012528
0.000125969
0.000126661
0.000127356
0.000128052
0.000128745
0.000129446
0.000130145
0.000130851
0.000131555
0.000132258
0.000132967
0.000133676
0.000134391
0.000135105
0.000135817
0.000136536
0.000137254
0.000137978
0.000138701
0.000139423
0.000140151
0.000140879
0.000141612
0.000142345
0.000143076
0.000143813
0.00014455
0.000145293
0.000146035
0.000146776
0.000147522
0.000148268
0.000149021
0.000149772
0.000150522
0.000151278
0.000152033
0.000152795
0.000153556
0.000154314
0.00015508
0.000155844
0.000156616
0.000157385
0.000158155
0.000158928
0.000159704
0.000160482
0.000161264
0.000162047
0.000162827
0.000163615
0.000164401
0.000165193
0.000165984
0.000166775
0.000167571
0.000168367
0.000169168
0.000169969
0.000170768
0.000171574
0.000172379
0.00017319
0.000174
0.000174809
0.000175624
0.000176438
0.000177259
0.000178078
0.000178896
0.00017972
0.000180544
0.000181374
0.000182202
0.00018303
0.000183864
0.000184697
0.000185536
0.000186374
0.000187211
0.000188054
0.000188896
0.000189744
0.000190592
0.000191438
0.00019229
0.000193142
0.000194
0.000194857
0.000195712
0.000196574
0.000197434
0.000198302
0.000199167
0.000200033
0.000200903
0.000201775
0.00020265
0.000203528
0.000204407
0.000205283
0.000206167
0.000207049
0.000207938
0.000208825
0.000209712
0.000210604
0.000211496
0.000212394
0.000213291
0.000214187
0.000215088
0.00021599
0.000216897
0.000217803
0.000218708
0.000219619
0.00022053
0.000221447
0.000222362
0.000223277
0.000224197
0.000225117
0.000226043
0.000226968
0.000227892
0.000228822
0.000229751
0.000230686
0.00023162
0.000232554
0.000233493
0.000234431
0.000235376
0.00023632
0.000237262
0.000238211
0.000239158
0.000240113
0.000241065
0.000242018
0.000242974
0.000243933
0.000244895
0.00024586
0.000246826
0.000247789
0.00024876
0.000249729
0.000250705
0.000251679
0.000252652
0.000253631
0.00025461
0.000255595
0.000256579
0.000257561
0.00025855
0.000259538
0.000260532
0.000261526
0.000262518
0.000263515
0.000264513
0.000265517
0.000266519
0.00026752
0.000268528
0.000269534
0.000270547
0.000271559
0.00027257
0.000273586
0.000274603
0.000275625
0.000276646
0.000277666
0.000278692
0.000279718
0.000280749
0.00028178
0.000282809
0.000283844
0.000284879
0.00028592
0.00028696
0.000287998
0.000289044
0.000290087
0.000291138
0.000292186
0.000293236
0.000294288
0.000295343
0.000296401
0.000297463
0.000298525
0.000299584
0.000300651
0.000301716
0.000302788
0.000303859
0.000304928
0.000306004
0.000307079
0.00030816
0.00030924
0.000310319
0.000311404
0.000312488
0.000313579
0.000314668
0.000315756
0.00031685
0.000317944
0.000319044
0.000320143
0.00032124
0.000322344
0.000323447
0.000324556
0.000325664
0.000326771
0.000327884
0.000328996
0.000330115
0.000331232
0.000332348
0.00033347
0.000334592
0.00033572
0.000336847
0.000337972
0.000339104
0.000340235
0.000341373
0.000342508
0.000343644
0.000344783
0.000345925
0.00034707
0.000348218
0.000349367
0.000350514
0.000351667
0.000352819
0.000353978
0.000355136
0.000356292
0.000357454
0.000358617
0.000359784
0.000360951
0.000362117
0.000363289
0.00036446
0.000365638
0.000366814
0.000367989
0.00036917
0.000370351
0.000371537
0.000372723
0.000373907
0.000375098
0.000376288
0.000377484
0.000378679
0.000379872
0.000381072
0.000382271
0.000383477
0.000384681
0.000385884
0.000387093
0.000388302
0.000389517
0.00039073
0.000391943
0.000393161
0.000394379
0.000395603
0.000396826
0.000398048
0.000399276
0.000400503
0.000401737
0.000402968
0.000404201
0.000405436
0.000406675
0.000407916
0.00040916
0.000410405
0.000411648
0.000412898
0.000414146
0.000415401
0.000416655
0.000417908
0.000419166
0.000420425
0.000421689
0.000422952
0.000424214
0.000425482
0.000426749
0.000428023
0.000429295
0.000430567
0.000431844
0.000433121
0.000434404
0.000435685
0.000436966
0.000438253
0.000439539
0.000440831
0.000442122
0.000443412
0.000444708
0.000446004
0.000447306
0.000448606
0.000449905
0.000451211
0.000452516
0.000453826
0.000455137
0.000456445
0.00045776
0.000459074
0.000460395
0.000461713
0.000463032
0.000464355
0.00046568
0.000467008
0.000468339
0.000469671
0.000471001
0.000472337
0.000473673
0.000475015
0.000476355
0.000477695
0.00047904
0.000480386
0.000481737
0.000483087
0.000484435
0.00048579
0.000487145
0.000488505
0.000489865
0.000491223
0.000492587
0.000493951
0.000495321
0.000496689
0.000498057
0.00049943
0.000500803
0.000502183
0.000503561
0.000504937
0.00050632
0.000507703
0.000509091
0.000510479
0.000511865
0.000513257
0.000514649
0.000516047
0.000517443
0.000518839
0.00052024
0.000521642
0.000523049
0.000524455
0.00052586
0.000527271
0.000528681
0.000530098
0.000531513
0.000532928
0.000534347
0.000535768
0.000537192
0.00053862
0.000540048
0.000541474
0.000542907
0.000544338
0.000545777
0.000547213
0.000548649
0.000550091
0.000551533
0.00055298
0.000554426
0.000555871
0.000557322
0.000558773
0.00056023
0.000561685
0.000563139
0.0005646
0.00056606
0.000567526
0.000568991
0.000570455
0.000571924
0.000573394
0.000574869
0.000576343
0.000577816
0.000579296
0.000580774
0.000582259
0.000583743
0.000585225
0.000586713
0.000588202
0.000589695
0.000591189
0.00059268
0.000594178
0.000595675
0.000597179
0.000598681
0.000600183
0.000601689
0.000603197
0.000604708
0.000606222
0.000607738
0.00060925
0.00061077
0.000612289
0.000613814
0.000615337
0.00061686
0.000618389
0.000619917
0.000621451
0.000622984
0.000624516
0.000626054
0.000627592
0.000629135
0.000630678
0.000632219
0.000633766
0.000635313
0.000636866
0.000638418
0.000639969
0.000641525
0.000643082
0.000644644
0.000646205
0.000647765
0.000649331
0.000650897
0.000652468
0.000654039
0.000655608
0.000657183
0.000658758
0.000660339
0.000661919
0.000663498
0.000665082
0.000666667
0.000668257
0.000669846
0.000671434
0.000673028
0.000674621
0.000676222
0.000677819
0.000679418
0.00068102
0.000682624
0.000684232
0.000685842
0.000687454
0.000689063
0.000690679
0.000692293
0.000693915
0.000695534
0.000697154
0.000698778
0.000700403
0.000702033
0.000703663
0.000705291
0.000706925
0.000708559
0.000710199
0.000711837
0.000713475
0.000715118
0.000716762
0.000718411
0.000720059
0.000721706
0.000723358
0.000725011
0.000726669
0.000728327
0.000729983
0.000731645
0.000733307
0.000734975
0.000736642
0.000738307
0.000739979
0.00074165
0.000743327
0.000745003
0.000746678
0.000748359
0.000750039
0.000751726
0.000753411
0.000755096
0.000756785
0.000758477
0.000760171
0.000761868
0.000763567
0.000765262
0.000766965
0.000768667
0.000770375
0.000772082
0.000773788
0.000775499
0.000777211
0.000778928
0.000780644
0.000782359
0.000784081
0.000785801
0.000787528
0.000789253
0.000790978
0.000792708
0.000794438
0.000796174
0.000797909
0.000799643
0.000801383
0.000803122
0.000804868
0.000806612
0.000808355
0.000810104
0.000811853
0.000813607
0.000815361
0.000817113
0.000818872
0.00082063
0.000822394
0.000824157
0.000825919
0.000827686
0.000829454
0.000831227
0.000833
0.000834771
0.000836548
0.000838324
0.000840108
0.000841889
0.00084367
0.000845455
0.000847243
0.000849033
0.000850827
0.000852622
0.000854414
0.000856213
0.00085801
0.000859815
0.000861618
0.00086342
0.000865228
0.000867036
0.000868849
0.000870662
0.000872473
0.00087429
0.000876107
0.00087793
0.000879752
0.000881573
0.000883399
0.000885225
0.000887058
0.000888889
0.000890719
0.000892555
0.00089439
0.000896232
0.000898073
0.000899912
0.000901757
0.000903602
0.000905453
0.000907303
0.000909152
0.000911006
0.000912861
0.000914721
0.00091658
0.000918438
0.000920302
0.000922165
0.000924036
0.000925903
0.000927772
0.000929644
0.000931518
0.000933396
0.000935276
0.000937158
0.000939037
0.000940923
0.000942807
0.000944699
0.000946589
0.000948478
0.000950372
0.000952267
0.000954167
0.000956067
0.000957965
0.000959869
0.000961773
0.000963683
0.000965591
0.000967499
0.000969412
0.000971326
0.000973245
0.000975163
0.00097708
0.000979003
0.000980925
0.000982854
0.000984781
0.000986707
0.000988639
0.000990571
0.000992509
0.000994446
0.000996381
0.000998323
0.00100026
0.00100221
0.00100416
0.0010061
0.00100805
0.00101
0.00101196
0.00101392
0.00101587
0.00101783
0.00101979
0.00102176
0.00102372
0.00102568
0.00102765
0.00102962
0.0010316
0.00103357
0.00103555
0.00103753
0.00103951
0.00104149
0.00104348
0.00104546
0.00104745
0.00104944
0.00105143
0.00105343
0.00105542
0.00105742
0.00105942
0.00106142
0.00106342
0.00106543
0.00106743
0.00106944
0.00107145
0.00107347
0.00107548
0.00107749
0.00107951
0.00108153
0.00108356
0.00108558
0.0010876
0.00108963
0.00109166
0.00109369
0.00109573
0.00109776
0.0010998
0.00110183
0.00110388
0.00110592
0.00110796
0.00111001
0.00111205
0.00111411
0.00111616
0.00111821
0.00112026
0.00112232
0.00112438
0.00112645
0.00112851
0.00113057
0.00113264
0.00113471
0.00113678
0.00113886
0.00114093
0.00114301
0.00114509
0.00114717
0.00114925
0.00115133
0.00115342
0.00115551
0.0011576
0.00115969
0.00116178
0.00116388
0.00116598
0.00116808
0.00117018
0.00117228
0.00117438
0.00117649
0.0011786
0.00118071
0.00118282
0.00118494
0.00118705
0.00118917
0.00119129
0.00119341
0.00119554
0.00119766
0.00119979
0.00120192
0.00120405
0.00120618
0.00120832
0.00121046
0.00121259
0.00121473
0.00121687
0.00121902
0.00122117
0.00122331
0.00122546
0.00122761
0.00122977
0.00123192
0.00123408
0.00123624
0.0012384
0.00124057
0.00124273
0.0012449
0.00124707
0.00124924
0.00125141
0.00125359
0.00125577
0.00125795
0.00126012
0.00126231
0.00126449
0.00126668
0.00126887
0.00127105
0.00127325
0.00127544
0.00127764
0.00127984
0.00128203
0.00128423
0.00128644
0.00128864
0.00129085
0.00129306
0.00129527
0.00129748
0.0012997
0.00130191
0.00130413
0.00130635
0.00130857
0.0013108
0.00131302
0.00131524
0.00131748
0.0013197
0.00132194
0.00132418
0.00132641
0.00132865
0.00133089
0.00133313
0.00133538
0.00133763
0.00133987
0.00134212
0.00134438
0.00134663
0.00134889
0.00135114
0.00135341
0.00135567
0.00135793
0.0013602
0.00136246
0.00136473
0.001367
0.00136928
0.00137155
0.00137383
0.00137611
0.00137839
0.00138067
0.00138296
0.00138524
0.00138753
0.00138982
0.00139211
0.00139441
0.0013967
0.001399
0.0014013
0.0014036
0.0014059
0.0014082
0.00141051
0.00141282
0.00141513
0.00141744
0.00141976
0.00142207
0.00142439
0.00142671
0.00142903
0.00143135
0.00143368
0.00143601
0.00143834
0.00144067
0.001443
0.00144534
0.00144767
0.00145001
0.00145236
0.0014547
0.00145704
0.00145939
0.00146174
0.00146409
0.00146644
0.00146879
0.00147115
0.00147351
0.00147587
0.00147823
0.00148059
0.00148296
0.00148533
0.0014877
0.00149007
0.00149244
0.00149482
0.00149719
0.00149957
0.00150195
0.00150433
0.00150672
0.0015091
0.00151149
0.00151388
0.00151627
0.00151867
0.00152106
0.00152346
0.00152586
0.00152826
0.00153066
0.00153307
0.00153548
0.00153788
0.00154029
0.00154271
0.00154512
0.00154754
0.00154995
0.00155237
0.00155479
0.00155722
0.00155964
0.00156207
0.00156451
0.00156693
0.00156937
0.0015718
0.00157424
0.00157668
0.00157912
0.00158157
0.00158401
0.00158646
0.00158891
0.00159136
0.00159381
0.00159626
0.00159872
0.00160118
0.00160364
0.0016061
0.00160856
0.00161103
0.0016135
0.00161596
0.00161844
0.00162091
0.00162339
0.00162586
0.00162834
0.00163082
0.0016333
0.00163579
0.00163827
0.00164076
0.00164325
0.00164574
0.00164824
0.00165073
0.00165323
0.00165573
0.00165823
0.00166073
0.00166324
0.00166574
0.00166825
0.00167076
0.00167328
0.00167579
0.0016783
0.00168082
0.00168334
0.00168586
0.00168839
0.00169092
0.00169344
0.00169597
0.0016985
0.00170104
0.00170357
0.00170611
0.00170865
0.00171119
0.00171374
0.00171628
0.00171882
0.00172137
0.00172392
0.00172648
0.00172903
0.00173159
0.00173415
0.0017367
0.00173927
0.00174183
0.0017444
0.00174696
0.00174953
0.00175211
0.00175468
0.00175725
0.00175983
0.00176241
0.00176499
0.00176757
0.00177015
0.00177274
0.00177533
0.00177792
0.00178051
0.0017831
0.0017857
0.00178829
0.0017909
0.0017935
0.0017961
0.0017987
0.00180131
0.00180392
0.00180653
0.00180915
0.00181176
0.00181438
0.00181699
0.00181962
0.00182224
0.00182486
0.00182749
0.00183011
0.00183275
0.00183538
0.00183801
0.00184065
0.00184328
0.00184593
0.00184857
0.00185121
0.00185385
0.0018565
0.00185915
0.0018618
0.00186445
0.0018671
0.00186976
0.00187242
0.00187508
0.00187774
0.0018804
0.00188307
0.00188574
0.00188841
0.00189108
0.00189375
0.00189642
0.0018991
0.00190178
0.00190446
0.00190714
0.00190983
0.00191251
0.0019152
0.00191789
0.00192058
0.00192327
0.00192597
0.00192867
0.00193137
0.00193407
0.00193677
0.00193948
0.00194219
0.0019449
0.0019476
0.00195032
0.00195303
0.00195575
0.00195847
0.00196119
0.00196391
0.00196663
0.00196936
0.00197209
0.00197482
0.00197755
0.00198028
0.00198302
0.00198576
0.0019885
0.00199124
0.00199398
0.00199673
0.00199947
0.00200222
0.00200497
0.00200772
0.00201048
0.00201324
0.00201599
0.00201875
0.00202151
0.00202428
0.00202704
0.00202981
0.00203258
0.00203535
0.00203812
0.0020409
0.00204367
0.00204645
0.00204923
0.00205202
0.0020548
0.00205758
0.00206037
0.00206316
0.00206595
0.00206875
0.00207155
0.00207434
0.00207714
0.00207994
0.00208275
0.00208556
0.00208836
0.00209117
0.00209398
0.0020968
0.00209961
0.00210243
0.00210525
0.00210807
0.00211089
0.00211372
0.00211654
0.00211937
0.0021222
0.00212503
0.00212786
0.0021307
0.00213354
0.00213637
0.00213922
0.00214206
0.0021449
0.00214775
0.0021506
0.00215345
0.0021563
0.00215915
0.00216201
0.00216487
0.00216773
0.00217059
0.00217345
0.00217632
0.00217919
0.00218206
0.00218493
0.0021878
0.00219068
0.00219355
0.00219643
0.00219931
0.00220219
0.00220508
0.00220796
0.00221085
0.00221374
0.00221664
0.00221953
0.00222243
0.00222532
0.00222823
0.00223113
0.00223403
0.00223693
0.00223984
0.00224275
0.00224566
0.00224857
0.00225149
0.00225441
0.00225733
0.00226025
0.00226317
0.00226609
0.00226902
0.00227195
0.00227488
0.00227781
0.00228074
0.00228368
0.00228662
0.00228956
0.00229249
0.00229544
0.00229838
0.00230133
0.00230428
0.00230723
0.00231018
0.00231313
0.00231609
0.00231905
0.00232201
0.00232497
0.00232793
0.0023309
0.00233387
0.00233683
0.00233981
0.00234278
0.00234575
0.00234873
0.00235171
0.00235469
0.00235767
0.00236065
0.00236364
0.00236663
0.00236962
0.00237261
0.00237561
0.00237861
0.0023816
0.0023846
0.0023876
0.00239061
0.00239361
0.00239662
0.00239963
0.00240264
0.00240565
0.00240867
0.00241169
0.0024147
0.00241772
0.00242075
0.00242377
0.0024268
0.00242982
0.00243285
0.00243589
0.00243892
0.00244196
0.00244499
0.00244803
0.00245107
0.00245412
0.00245716
0.00246021
0.00246326
0.0024663
0.00246936
0.00247241
0.00247547
0.00247853
0.00248158
0.00248465
0.00248771
0.00249078
0.00249384
0.00249691
0.00249998
0.00250306
0.00250614
0.00250921
0.00251229
0.00251537
0.00251846
0.00252154
0.00252463
0.00252771
0.0025308
0.0025339
0.00253699
0.00254009
0.00254319
0.00254628
0.00254939
0.00255249
0.0025556
0.0025587
0.00256181
0.00256493
0.00256804
0.00257115
0.00257427
0.00257739
0.00258051
0.00258363
0.00258675
0.00258988
0.00259301
0.00259614
0.00259927
0.0026024
0.00260554
0.00260867
0.00261182
0.00261496
0.0026181
0.00262124
0.00262439
0.00262754
0.00263069
0.00263384
0.002637
0.00264015
0.00264331
0.00264647
0.00264963
0.00265279
0.00265596
0.00265913
0.0026623
0.00266547
0.00266864
0.00267182
0.00267499
0.00267818
0.00268136
0.00268454
0.00268772
0.00269091
0.0026941
0.00269729
0.00270048
0.00270368
0.00270687
0.00271007
0.00271327
0.00271647
0.00271968
0.00272288
0.00272609
0.0027293
0.00273251
0.00273572
0.00273893
0.00274215
0.00274537
0.00274859
0.00275181
0.00275504
0.00275827
0.00276149
0.00276472
0.00276795
0.00277119
0.00277442
0.00277766
0.0027809
0.00278414
0.00278738
0.00279063
0.00279387
0.00279712
0.00280037
0.00280362
0.00280688
0.00281014
0.0028134
0.00281665
0.00281992
0.00282318
0.00282645
0.00282972
0.00283299
0.00283626
0.00283953
0.00284281
0.00284609
0.00284936
0.00285264
0.00285593
0.00285921
0.0028625
0.00286579
0.00286908
0.00287237
0.00287567
0.00287896
0.00288226
0.00288556
0.00288886
0.00289217
0.00289547
0.00289878
0.00290209
0.0029054
0.00290871
0.00291203
0.00291534
0.00291866
0.00292198
0.0029253
0.00292863
0.00293195
0.00293528
0.00293861
0.00294194
0.00294528
0.00294861
0.00295195
0.00295528
0.00295863
0.00296197
0.00296531
0.00296866
0.00297201
0.00297536
0.00297872
0.00298207
0.00298542
0.00298878
0.00299214
0.00299551
0.00299887
0.00300224
0.00300561
0.00300897
0.00301235
0.00301572
0.0030191
0.00302247
0.00302585
0.00302924
0.00303262
0.003036
0.00303939
0.00304278
0.00304617
0.00304956
0.00305295
0.00305635
0.00305975
0.00306315
0.00306655
0.00306995
0.00307336
0.00307676
0.00308018
0.00308359
0.003087
0.00309041
0.00309383
0.00309725
0.00310067
0.00310409
0.00310751
0.00311094
0.00311437
0.0031178
0.00312123
0.00312466
0.0031281
0.00313154
0.00313498
0.00313842
0.00314186
0.00314531
0.00314875
0.00315221
0.00315566
0.00315911
0.00316256
0.00316602
0.00316948
0.00317294
0.0031764
0.00317987
0.00318333
0.0031868
0.00319027
0.00319374
0.00319721
0.00320069
0.00320417
0.00320765
0.00321113
0.00321461
0.00321809
0.00322158
0.00322507
0.00322856
0.00323205
0.00323555
0.00323905
0.00324254
0.00324604
0.00324954
0.00325304
0.00325655
0.00326006
0.00326357
0.00326708
0.00327059
0.00327411
0.00327762
0.00328114
0.00328466
0.00328818
0.00329171
0.00329523
0.00329876
0.00330229
0.00330582
0.00330936
0.00331289
0.00331643
0.00331997
0.00332351
0.00332706
0.0033306
0.00333415
0.0033377
0.00334125
0.0033448
0.00334836
0.00335192
0.00335547
0.00335903
0.00336259
0.00336616
0.00336973
0.00337329
0.00337686
0.00338043
0.00338401
0.00338759
0.00339116
0.00339474
0.00339832
0.00340191
0.00340549
0.00340907
0.00341266
0.00341625
0.00341985
0.00342344
0.00342704
0.00343063
0.00343423
0.00343784
0.00344144
0.00344504
0.00344865
0.00345226
0.00345587
0.00345949
0.0034631
0.00346672
0.00347033
0.00347396
0.00347758
0.00348121
0.00348483
0.00348846
0.00349209
0.00349572
0.00349936
0.00350299
0.00350663
0.00351027
0.00351391
0.00351756
0.0035212
0.00352485
0.0035285
0.00353215
0.0035358
0.00353946
0.00354311
0.00354677
0.00355043
0.0035541
0.00355776
0.00356142
0.00356509
0.00356876
0.00357244
0.00357611
0.00357978
0.00358346
0.00358714
0.00359082
0.0035945
0.00359819
0.00360187
0.00360556
0.00360925
0.00361294
0.00361664
0.00362033
0.00362403
0.00362773
0.00363143
0.00363514
0.00363884
0.00364255
0.00364626
0.00364997
0.00365368
0.0036574
0.00366111
0.00366484
0.00366856
0.00367228
0.003676
0.00367973
0.00368346
0.00368719
0.00369092
0.00369466
0.00369839
0.00370213
0.00370587
0.00370961
0.00371336
0.0037171
0.00372085
0.0037246
0.00372835
0.0037321
0.00373585
0.00373961
0.00374337
0.00374713
0.00375089
0.00375466
0.00375843
0.00376219
0.00376596
0.00376973
0.00377351
0.00377728
0.00378106
0.00378484
0.00378862
0.0037924
0.00379619
0.00379998
0.00380376
0.00380755
0.00381134
0.00381514
0.00381894
0.00382273
0.00382653
0.00383033
0.00383414
0.00383794
0.00384175
0.00384556
0.00384937
0.00385319
0.003857
0.00386082
0.00386464
0.00386846
0.00387228
0.00387611
0.00387994
0.00388376
0.00388759
0.00389142
0.00389526
0.0038991
0.00390293
0.00390677
0.00391061
0.00391446
0.00391831
0.00392215
0.003926
0.00392985
0.00393371
0.00393756
0.00394142
0.00394527
0.00394913
0.003953
0.00395686
0.00396073
0.0039646
0.00396846
0.00397234
0.00397621
0.00398008
0.00398396
0.00398784
0.00399172
0.00399561
0.00399949
0.00400338
0.00400726
0.00401116
0.00401505
0.00401894
0.00402284
0.00402673
0.00403064
0.00403454
0.00403844
0.00404235
0.00404626
0.00405016
0.00405408
0.00405799
0.00406191
0.00406582
0.00406974
0.00407367
0.00407759
0.00408151
0.00408544
0.00408937
0.0040933
0.00409723
0.00410116
0.0041051
0.00410904
0.00411298
0.00411692
0.00412086
0.00412481
0.00412875
0.00413271
0.00413666
0.00414061
0.00414456
0.00414852
0.00415248
0.00415644
0.0041604
0.00416437
0.00416833
0.0041723
0.00417627
0.00418024
0.00418421
0.00418819
0.00419217
0.00419615
0.00420013
0.00420411
0.00420809
0.00421208
0.00421607
0.00422006
0.00422405
0.00422805
0.00423204
0.00423605
0.00424005
0.00424405
0.00424805
0.00425206
0.00425607
0.00426008
0.00426409
0.0042681
0.00427212
0.00427614
0.00428015
0.00428417
0.0042882
0.00429222
0.00429625
0.00430028
0.00430431
0.00430834
0.00431237
0.00431641
0.00432045
0.00432449
0.00432853
0.00433257
0.00433662
0.00434067
0.00434471
0.00434877
0.00435282
0.00435687
0.00436093
0.00436499
0.00436905
0.00437311
0.00437718
0.00438124
0.00438531
0.00438938
0.00439345
0.00439752
0.0044016
0.00440567
0.00440975
0.00441383
0.00441792
0.00442201
0.00442609
0.00443018
0.00443427
0.00443836
0.00444246
0.00444656
0.00445065
0.00445476
0.00445886
0.00446296
0.00446707
0.00447117
0.00447529
0.0044794
0.00448351
0.00448763
0.00449174
0.00449586
0.00449998
0.00450411
0.00450823
0.00451236
0.00451649
0.00452062
0.00452475
0.00452888
0.00453302
0.00453716
0.0045413
0.00454544
0.00454958
0.00455373
0.00455787
0.00456202
0.00456618
0.00457033
0.00457448
0.00457864
0.00458279
0.00458696
0.00459112
0.00459528
0.00459945
0.00460362
0.00460779
0.00461196
0.00461614
0.00462031
0.00462449
0.00462867
0.00463285
0.00463703
0.00464122
0.00464541
0.00464959
0.00465379
0.00465798
0.00466217
0.00466637
0.00467057
0.00467477
0.00467897
0.00468318
0.00468738
0.00469159
0.0046958
0.00470001
0.00470422
0.00470844
0.00471266
0.00471688
0.0047211
0.00472532
0.00472955
0.00473377
0.004738
0.00474223
0.00474646
0.0047507
0.00475493
0.00475917
0.00476341
0.00476765
0.0047719
0.00477614
0.00478039
0.00478464
0.00478889
0.00479314
0.00479739
0.00480165
0.00480591
0.00481017
0.00481443
0.0048187
0.00482296
0.00482723
0.0048315
0.00483577
0.00484005
0.00484432
0.00484861
0.00485288
0.00485716
0.00486145
0.00486573
0.00487002
0.00487431
0.0048786
0.00488289
0.00488719
0.00489149
0.00489579
0.00490008
0.00490439
0.00490869
0.004913
0.00491731
0.00492161
0.00492593
0.00493024
0.00493456
0.00493887
0.00494319
0.00494751
0.00495183
0.00495616
0.00496049
0.00496481
0.00496914
0.00497348
0.00497781
0.00498215
0.00498648
0.00499082
0.00499516
0.00499951
0.00500386
0.0050082
0.00501255
0.0050169
0.00502125
0.00502561
0.00502997
0.00503433
0.00503869
0.00504305
0.00504742
0.00505178
0.00505615
0.00506052
0.00506489
0.00506927
0.00507365
0.00507802
0.0050824
0.00508678
0.00509117
0.00509555
0.00509994
0.00510433
0.00510872
0.00511312
0.00511751
0.0051219
0.0051263
0.0051307
0.00513511
0.00513951
0.00514391
0.00514832
0.00515273
0.00515715
0.00516156
0.00516597
0.00517039
0.00517481
0.00517923
0.00518366
0.00518808
0.0051925
0.00519693
0.00520137
0.0052058
0.00521023
0.00521467
0.0052191
0.00522355
0.00522799
0.00523243
0.00523687
0.00524132
0.00524577
0.00525022
0.00525468
0.00525913
0.00526359
0.00526805
0.00527251
0.00527697
0.00528144
0.0052859
0.00529037
0.00529484
0.00529932
0.00530379
0.00530826
0.00531274
0.00531722
0.00532171
0.00532619
0.00533067
0.00533516
0.00533965
0.00534414
0.00534863
0.00535313
0.00535762
0.00536212
0.00536662
0.00537112
0.00537563
0.00538013
0.00538464
0.00538915
0.00539366
0.00539818
0.00540269
0.00540721
0.00541173
0.00541625
0.00542077
0.0054253
0.00542983
0.00543435
0.00543888
0.00544341
0.00544795
0.00545249
0.00545703
0.00546157
0.00546611
0.00547065
0.0054752
0.00547975
0.0054843
0.00548885
0.0054934
0.00549795
0.00550252
0.00550707
0.00551163
0.0055162
0.00552076
0.00552533
0.0055299
0.00553447
0.00553904
0.00554361
0.00554819
0.00555277
0.00555735
0.00556193
0.00556651
0.0055711
0.00557569
0.00558027
0.00558486
0.00558946
0.00559405
0.00559865
0.00560325
0.00560785
0.00561245
0.00561706
0.00562166
0.00562627
0.00563088
0.00563549
0.0056401
0.00564472
0.00564933
0.00565395
0.00565857
0.0056632
0.00566782
0.00567245
0.00567708
0.00568171
0.00568634
0.00569098
0.00569561
0.00570025
0.00570489
0.00570953
0.00571418
0.00571882
0.00572347
0.00572812
0.00573277
0.00573743
0.00574208
0.00574674
0.0057514
0.00575606
0.00576072
0.00576539
0.00577005
0.00577472
0.00577939
0.00578407
0.00578874
0.00579341
0.00579809
0.00580277
0.00580745
0.00581214
0.00581682
0.00582151
0.0058262
0.00583089
0.00583558
0.00584028
0.00584497
0.00584967
0.00585437
0.00585908
0.00586378
0.00586848
0.00587319
0.0058779
0.00588261
0.00588732
0.00589204
0.00589676
0.00590148
0.0059062
0.00591093
0.00591565
0.00592038
0.0059251
0.00592984
0.00593457
0.0059393
0.00594404
0.00594878
0.00595352
0.00595826
0.00596301
0.00596775
0.0059725
0.00597725
0.005982
0.00598675
0.00599151
0.00599627
0.00600103
0.00600579
0.00601055
0.00601532
0.00602008
0.00602485
0.00602962
0.00603439
0.00603917
0.00604394
0.00604872
0.0060535
0.00605828
0.00606307
0.00606785
0.00607264
0.00607743
0.00608222
0.00608701
0.0060918
0.0060966
0.0061014
0.0061062
0.006111
0.00611581
0.00612061
0.00612542
0.00613024
0.00613504
0.00613986
0.00614467
0.0061495
0.00615431
0.00615913
0.00616396
0.00616878
0.00617361
0.00617844
0.00618327
0.0061881
0.00619294
0.00619778
0.00620262
0.00620745
0.0062123
0.00621714
0.00622199
0.00622684
0.00623168
0.00623654
0.00624139
0.00624625
0.0062511
0.00625596
0.00626082