/*--------------------------------*- C++ -*----------------------------------*\
| =========                 |                                                 |
| \\      /  F ield         | OpenFOAM: The Open Source CFD Toolbox           |
|  \\    /   O peration     | Version:  2206                                  |
|   \\  /    A nd           | Website:  www.openfoam.com                      |
|    \\/     M anipulation  |                                                 |
\*---------------------------------------------------------------------------*/
FoamFile
{
    version     2.0;
    format      ascii;
    arch        "LSB;label=32;scalar=64";
    class       volScalarField;
    location    "7500";
    object      p;
}
// * * * * * * * * * * * * * * * * * * * * * * * * * * * * * * * * * * * * * //

dimensions      [0 2 -2 0 0 0 0];

internalField   nonuniform List<scalar> 
100
(
-1.05719566e-09
0.0390816455
0.0575110363
0.0751457759
0.089004856
0.100554561
0.11020693
0.118366823
0.125327356
0.13131394
0.136501311
0.141026699
0.144999069
0.148505835
0.151617774
0.154392693
0.156878176
0.159113679
0.161132145
0.16296125
0.164624385
0.166141427
0.167529356
0.168802747
0.169974165
0.171054495
0.1720532
0.17297854
0.173837752
0.174637197
0.175382486
0.176078582
0.17672989
0.177340329
0.177913398
0.178452223
0.178959612
0.179438086
0.179889917
0.180317157
0.180721662
0.181105115
0.181469045
0.181814843
0.182143778
0.182457006
0.182755589
0.183040496
0.183312619
0.183572776
0.183821721
0.184060147
0.184288696
0.18450796
0.184718487
0.184920784
0.185115322
0.185302539
0.18548284
0.185656604
0.185824183
0.185985907
0.18614208
0.186292991
0.186438907
0.186580079
0.186716742
0.186849118
0.186977412
0.18710182
0.187222523
0.187339696
0.187453498
0.187564084
0.187671597
0.187776172
0.187877939
0.187977018
0.188073525
0.188167567
0.188259248
0.188348665
0.18843591
0.188521072
0.188604232
0.18868547
0.188764862
0.188842478
0.188918386
0.188992652
0.189065336
0.1891365
0.1892062
0.189274468
0.189341307
0.189406859
0.18947188
0.189537154
0.189597322
0.189632164
)
;

boundaryField
{
    left
    {
        type            wedge;
    }
    right
    {
        type            wedge;
    }
    outerWall
    {
        type            zeroGradient;
    }
    innerWall
    {
        type            zeroGradient;
    }
    frontAndBack
    {
        type            empty;
    }
}


// ************************************************************************* //
