/*--------------------------------*- C++ -*----------------------------------*\
| =========                 |                                                 |
| \\      /  F ield         | OpenFOAM: The Open Source CFD Toolbox           |
|  \\    /   O peration     | Version:  2206                                  |
|   \\  /    A nd           | Website:  www.openfoam.com                      |
|    \\/     M anipulation  |                                                 |
\*---------------------------------------------------------------------------*/
FoamFile
{
    version     2.0;
    format      ascii;
    arch        "LSB;label=32;scalar=64";
    class       surfaceScalarField;
    location    "7500";
    object      phi;
}
// * * * * * * * * * * * * * * * * * * * * * * * * * * * * * * * * * * * * * //

dimensions      [0 3 -1 0 0 0 0];

oriented        oriented;

internalField   nonuniform List<scalar> 
99
(
3.41954101e-10
6.57490241e-10
9.50064359e-10
1.22288454e-09
1.47846894e-09
1.71889877e-09
1.94589226e-09
2.16090071e-09
2.36514561e-09
2.55968183e-09
2.74540721e-09
2.92311375e-09
3.09347919e-09
3.25711448e-09
3.41454208e-09
3.56624491e-09
3.71263263e-09
3.8540948e-09
3.99095696e-09
4.12353976e-09
4.2521043e-09
4.37691922e-09
4.49819537e-09
4.6161617e-09
4.73098922e-09
4.8428761e-09
4.95196092e-09
5.05841817e-09
5.16235983e-09
5.26394152e-09
5.36325311e-09
5.46043553e-09
5.55555988e-09
5.64875541e-09
5.74007717e-09
5.8296452e-09
5.91750077e-09
6.00375656e-09
6.08844167e-09
6.17166311e-09
6.25343935e-09
6.33387281e-09
6.41297248e-09
6.49083733e-09
6.56746784e-09
6.64296027e-09
6.71730748e-09
6.7906037e-09
6.86283484e-09
6.93409366e-09
7.0043598e-09
7.0737249e-09
7.14216287e-09
7.20976464e-09
7.27649888e-09
7.34245603e-09
7.40759993e-09
7.47202084e-09
7.53567822e-09
7.59866213e-09
7.66092799e-09
7.72256595e-09
7.78352767e-09
7.84390348e-09
7.90364146e-09
7.96283246e-09
8.02142105e-09
8.07949863e-09
8.13700655e-09
8.19403678e-09
8.25052712e-09
8.30657144e-09
8.36210311e-09
8.41721877e-09
8.47184698e-09
8.5260872e-09
8.57986262e-09
8.63327657e-09
8.68624936e-09
8.7388828e-09
8.79109653e-09
8.84299134e-09
8.8944925e-09
8.94568853e-09
8.99651474e-09
9.0470482e-09
9.09724103e-09
9.14714736e-09
9.19674208e-09
9.24605501e-09
9.29508463e-09
9.34383839e-09
9.39233076e-09
9.44055914e-09
9.48853891e-09
9.53627192e-09
9.58376709e-09
9.63103036e-09
9.67806962e-09
)
;

boundaryField
{
    left
    {
        type            wedge;
        value           nonuniform List<scalar> 
100
(
1.34136705e-05
1.23774546e-05
1.14767851e-05
1.07018332e-05
1.00257978e-05
9.43125075e-06
8.90427241e-06
8.43403754e-06
8.0119214e-06
7.6309597e-06
7.28546913e-06
6.97076568e-06
6.68295455e-06
6.41877149e-06
6.17545966e-06
5.9506744e-06
5.74241016e-06
5.54894037e-06
5.36877057e-06
5.20060162e-06
5.04329798e-06
4.89586264e-06
4.75741759e-06
4.6271857e-06
4.50447667e-06
4.38867598e-06
4.27923407e-06
4.17565794e-06
4.07750477e-06
3.98437505e-06
3.89590734e-06
3.81177457e-06
3.73167938e-06
3.65535078e-06
3.58254199e-06
3.51302715e-06
3.44659912e-06
3.38306821e-06
3.32225974e-06
3.26401295e-06
3.20817923e-06
3.15462169e-06
3.10321343e-06
3.05383663e-06
3.00638234e-06
2.96074909e-06
2.91684227e-06
2.87457408e-06
2.83386245e-06
2.79463051e-06
2.75680675e-06
2.72032403e-06
2.68511928e-06
2.65113364e-06
2.61831171e-06
2.58660119e-06
2.55595326e-06
2.52632173e-06
2.49766294e-06
2.46993598e-06
2.44310211e-06
2.41712452e-06
2.39196874e-06
2.36760193e-06
2.34399309e-06
2.32111262e-06
2.29893276e-06
2.27742702e-06
2.25657006e-06
2.23633811e-06
2.21670843e-06
2.1976592e-06
2.17916996e-06
2.16122106e-06
2.14379363e-06
2.12686994e-06
2.11043294e-06
2.09446621e-06
2.07895432e-06
2.06388241e-06
2.0492361e-06
2.03500194e-06
2.02116687e-06
2.00771828e-06
1.99464435e-06
1.98193361e-06
1.96957491e-06
1.95755785e-06
1.94587224e-06
1.9345084e-06
1.92345683e-06
1.9127087e-06
1.90225535e-06
1.89208835e-06
1.88219982e-06
1.87258205e-06
1.86322748e-06
1.85412915e-06
1.84528047e-06
1.83667442e-06
)
;
    }
    right
    {
        type            wedge;
        value           nonuniform List<scalar> 
100
(
-1.34140125e-05
-1.23777701e-05
-1.14770776e-05
-1.0702106e-05
-1.00260534e-05
-9.43149118e-06
-8.9044994e-06
-8.43425255e-06
-8.01212564e-06
-7.63115423e-06
-7.28565485e-06
-6.97094338e-06
-6.68312491e-06
-6.41893512e-06
-6.17561709e-06
-5.9508261e-06
-5.74255655e-06
-5.54908183e-06
-5.36890743e-06
-5.2007342e-06
-5.04342655e-06
-4.89598745e-06
-4.75753887e-06
-4.62730366e-06
-4.5045915e-06
-4.38878786e-06
-4.27934316e-06
-4.17576439e-06
-4.07760872e-06
-3.98447663e-06
-3.89600666e-06
-3.81187175e-06
-3.73177451e-06
-3.65544397e-06
-3.58263332e-06
-3.51311671e-06
-3.44668698e-06
-3.38315446e-06
-3.32234444e-06
-3.26409616e-06
-3.20826102e-06
-3.15470211e-06
-3.10329254e-06
-3.05391448e-06
-3.00645898e-06
-2.96082457e-06
-2.91691662e-06
-2.87464736e-06
-2.8339347e-06
-2.79470175e-06
-2.75687703e-06
-2.72039338e-06
-2.68518773e-06
-2.65120123e-06
-2.61837845e-06
-2.58666713e-06
-2.55601842e-06
-2.52638614e-06
-2.49772661e-06
-2.46999895e-06
-2.44316439e-06
-2.41718614e-06
-2.39202972e-06
-2.36766229e-06
-2.34405284e-06
-2.32117179e-06
-2.29899137e-06
-2.27748508e-06
-2.25662758e-06
-2.23639512e-06
-2.21676494e-06
-2.19771522e-06
-2.17922551e-06
-2.16127616e-06
-2.14384828e-06
-2.12692416e-06
-2.11048674e-06
-2.0945196e-06
-2.07900732e-06
-2.06393502e-06
-2.04928835e-06
-2.03505381e-06
-2.02121839e-06
-2.00776946e-06
-1.9946952e-06
-1.98198413e-06
-1.96962512e-06
-1.95760775e-06
-1.94592185e-06
-1.93455771e-06
-1.92350587e-06
-1.91275746e-06
-1.90230384e-06
-1.89213658e-06
-1.8822478e-06
-1.87262979e-06
-1.86327498e-06
-1.85417641e-06
-1.84532751e-06
-1.83672124e-06
)
;
    }
    outerWall
    {
        type            calculated;
        value           uniform 9.72489148e-09;
    }
    innerWall
    {
        type            calculated;
        value           uniform 0;
    }
    frontAndBack
    {
        type            empty;
        value           nonuniform List<scalar> 0();
    }
}


// ************************************************************************* //
