/*--------------------------------*- C++ -*----------------------------------*\
| =========                 |                                                 |
| \\      /  F ield         | OpenFOAM: The Open Source CFD Toolbox           |
|  \\    /   O peration     | Version:  2206                                  |
|   \\  /    A nd           | Website:  www.openfoam.com                      |
|    \\/     M anipulation  |                                                 |
\*---------------------------------------------------------------------------*/
FoamFile
{
    version     2.0;
    format      ascii;
    arch        "LSB;label=32;scalar=64";
    class       volVectorField;
    location    "7500";
    object      U;
}
// * * * * * * * * * * * * * * * * * * * * * * * * * * * * * * * * * * * * * //

dimensions      [0 1 -1 0 0 0 0];

internalField   nonuniform List<vector> 
100
(
(0.0121941917 0.596178333 0)
(-0.00387441027 0.550123115 0)
(0.000932860447 0.510092338 0)
(-0.000127546741 0.475649157 0)
(0.000106261297 0.445602372 0)
(9.0635598e-05 0.419177385 0)
(0.000109506386 0.395755529 0)
(0.000120770901 0.374855668 0)
(0.000130260199 0.356094473 0)
(0.000137892986 0.33916241 7.34812487e-20)
(0.000144079141 0.323806882 -7.75650248e-20)
(0.000149081219 0.309819704 0)
(0.00015311396 0.297027776 0)
(0.000156347596 0.285286007 8.70889285e-20)
(0.000158918565 0.274471866 0)
(0.000160937275 0.264481162 0)
(0.000162493703 0.255224737 0)
(0.000163661696 0.246625855 0)
(0.000164502218 0.23861811 0)
(0.000165065913 0.231143744 0)
(0.000165395031 0.224152287 0)
(0.000165525029 0.217599444 0)
(0.000165485753 0.211446173 0)
(0.000165302466 0.205657937 0)
(0.000164996593 0.200204068 0)
(0.0001645864 0.195057239 0)
(0.000164087473 0.190193026 0)
(0.000163513186 0.185589529 0)
(0.000162875011 0.181227055 0)
(0.000162182838 0.177087847 0)
(0.000161445187 0.173155853 0)
(0.00016066944 0.169416523 0)
(0.000159861974 0.165856642 0)
(0.000159028335 0.162464177 0)
(0.000158173324 0.159228149 0)
(0.00015730113 0.156138518 0)
(0.000156415387 0.153186089 0)
(0.000155519271 0.150362421 0)
(0.000154615535 0.147659754 0)
(0.000153706595 0.145070938 0)
(0.000152794542 0.142589379 0)
(0.000151881212 0.140208984 0)
(0.000150968191 0.137924111 0)
(0.000150056873 0.135729533 0)
(0.000149148458 0.1336204 0)
(0.000148244 0.131592201 0)
(0.000147344401 0.12964074 0)
(0.000146450452 0.127762106 0)
(0.000145562826 0.125952651 0)
(0.000144682109 0.124208968 0)
(0.000143808795 0.122527869 0)
(0.000142943313 0.120906371 0)
(0.000142086018 0.119341678 0)
(0.000141237213 0.117831166 0)
(0.000140397146 0.116372374 0)
(0.000139566023 0.114962984 0)
(0.000138744007 0.113600819 0)
(0.00013793123 0.112283826 0)
(0.000137127787 0.111010072 0)
(0.000136333752 0.109777732 0)
(0.000135549168 0.108585082 0)
(0.000134774062 0.107430496 0)
(0.000134008437 0.106312433 0)
(0.000133252285 0.105229436 0)
(0.000132505577 0.104180125 0)
(0.000131768278 0.103163191 0)
(0.000131040336 0.102177395 7.40522457e-20)
(0.000130321694 0.101221557 0)
(0.000129612281 0.10029456 0)
(0.000128912022 0.0993953394 0)
(0.000128220831 0.0985228845 0)
(0.000127538625 0.0976762328 7.08507145e-20)
(0.000126865306 0.0968544679 0)
(0.000126200784 0.0960567165 0)
(0.000125544956 0.0952821463 0)
(0.000124897722 0.0945299632 -6.84326331e-20)
(0.00012425897 0.0937994092 0)
(0.000123628601 0.0930897606 0)
(0.000123006514 0.0924003259 0)
(0.000122392591 0.091730444 0)
(0.000121786718 0.0910794826 0)
(0.000121188784 0.0904468367 0)
(0.000120598708 0.0898319271 0)
(0.000120016349 0.0892341989 -6.39673844e-20)
(0.000119441609 0.0886531205 0)
(0.000118874357 0.0880881822 0)
(0.000118314547 0.0875388949 0)
(0.000117762043 0.0870047896 6.19107954e-20)
(0.00011721668 0.086485416 0)
(0.000116677884 0.0859803414 0)
(0.000116145634 0.0854891503 0)
(0.000115624178 0.0850114432 5.99639274e-20)
(0.000115123443 0.0845468362 0)
(0.000114622507 0.0840949597 0)
(0.000113970567 0.0836554583 0)
(0.000113020621 0.0832279893 5.81206084e-20)
(0.000112947538 0.082812222 0)
(0.000118036251 0.0824078411 0)
(0.000126514874 0.0820145546 0)
(9.20786432e-05 0.0816320556 0)
)
;

boundaryField
{
    left
    {
        type            wedge;
    }
    right
    {
        type            wedge;
    }
    outerWall
    {
        type            navierSlip;
        value           uniform (0 0.0814490991 0);
        slipLength      uniform 1;
        wallVelocity    uniform (0 0 0);
    }
    innerWall
    {
        type            rotatingWallVelocity;
        origin          (0 0 0);
        axis            (0 0 1);
        omega           constant 12.566;
        value           uniform (0 0.628204307 -0);
    }
    frontAndBack
    {
        type            empty;
    }
}


// ************************************************************************* //
