/*--------------------------------*- C++ -*----------------------------------*\
| =========                 |                                                 |
| \\      /  F ield         | OpenFOAM: The Open Source CFD Toolbox           |
|  \\    /   O peration     | Version:  2206                                  |
|   \\  /    A nd           | Website:  www.openfoam.com                      |
|    \\/     M anipulation  |                                                 |
\*---------------------------------------------------------------------------*/
FoamFile
{
    version     2.0;
    format      ascii;
    arch        "LSB;label=32;scalar=64";
    class       volScalarField;
    location    "7";
    object      p;
}
// * * * * * * * * * * * * * * * * * * * * * * * * * * * * * * * * * * * * * //

dimensions      [0 2 -2 0 0 0 0];

internalField   nonuniform List<scalar> 
36000
(
-0.810293
21754.9
77983.4
265589
645407
915246
213962
178274
92734.5
73208.5
115119
210440
695729
628305
496751
403696
403846
433706
1.15916e+06
1.03488e+06
907552
893354
935095
976601
2.37407e+06
2.36008e+06
2.36479e+06
2.42724e+06
2.516e+06
2.55788e+06
4.14007e+06
4.12983e+06
4.15188e+06
4.22074e+06
4.28126e+06
4.32269e+06
5.91108e+06
5.90974e+06
5.91501e+06
5.9276e+06
5.97118e+06
6.01604e+06
6.84012e+06
6.7757e+06
6.69969e+06
6.71439e+06
6.78558e+06
6.83382e+06
7.50456e+06
7.40836e+06
7.37099e+06
7.38693e+06
7.47189e+06
7.52057e+06
9.35153e+06
9.34774e+06
9.36461e+06
9.36446e+06
9.36897e+06
9.37593e+06
1.16666e+07
1.16762e+07
1.1708e+07
1.1698e+07
1.16645e+07
1.16452e+07
1.31578e+07
1.31552e+07
1.31551e+07
1.31619e+07
1.31682e+07
1.31667e+07
1.3935e+07
1.39415e+07
1.39487e+07
1.39613e+07
1.39848e+07
1.39935e+07
1.45387e+07
1.45469e+07
1.45586e+07
1.45754e+07
1.46005e+07
1.46095e+07
1.51381e+07
1.51419e+07
1.51544e+07
1.51751e+07
1.52063e+07
1.52177e+07
1.59456e+07
1.5949e+07
1.59614e+07
1.59811e+07
1.60086e+07
1.60193e+07
1.70126e+07
1.70156e+07
1.70255e+07
1.70389e+07
1.70547e+07
1.70619e+07
1.82624e+07
1.82657e+07
1.82711e+07
1.82768e+07
1.82823e+07
1.82868e+07
1.9526e+07
1.95288e+07
1.95322e+07
1.9536e+07
1.95405e+07
1.9545e+07
2.07704e+07
2.07721e+07
2.07748e+07
2.07796e+07
2.07855e+07
2.07905e+07
2.203e+07
2.20315e+07
2.20347e+07
2.20393e+07
2.20454e+07
2.20501e+07
2.33012e+07
2.33031e+07
2.33069e+07
2.33115e+07
2.33176e+07
2.33221e+07
2.45764e+07
2.45783e+07
2.4582e+07
2.45867e+07
2.45926e+07
2.45967e+07
2.58453e+07
2.58475e+07
2.58513e+07
2.58561e+07
2.58619e+07
2.58659e+07
2.71051e+07
2.71076e+07
2.71118e+07
2.71169e+07
2.7123e+07
2.71271e+07
2.83583e+07
2.83615e+07
2.8367e+07
2.83728e+07
2.83797e+07
2.8384e+07
2.96157e+07
2.96202e+07
2.96283e+07
2.96354e+07
2.96434e+07
2.96481e+07
3.09093e+07
3.09156e+07
3.09279e+07
3.09369e+07
3.09463e+07
3.09511e+07
3.22999e+07
3.23072e+07
3.2323e+07
3.23354e+07
3.23482e+07
3.23544e+07
3.39231e+07
3.39275e+07
3.39443e+07
3.39656e+07
3.39928e+07
3.40058e+07
3.60165e+07
3.60197e+07
3.60334e+07
3.60535e+07
3.60786e+07
3.60902e+07
3.84637e+07
3.84655e+07
3.84726e+07
3.84818e+07
3.84888e+07
3.84913e+07
4.09721e+07
4.09707e+07
4.09736e+07
4.09776e+07
4.0982e+07
4.09857e+07
4.37107e+07
4.37099e+07
4.37106e+07
4.37136e+07
4.37208e+07
4.37276e+07
4.66816e+07
4.66839e+07
4.66861e+07
4.66903e+07
4.6699e+07
4.6705e+07
4.96467e+07
4.9649e+07
4.96576e+07
4.96693e+07
4.96835e+07
4.96891e+07
5.26778e+07
5.26776e+07
5.2683e+07
5.2694e+07
5.27056e+07
5.27089e+07
5.58239e+07
5.58203e+07
5.58188e+07
5.58256e+07
5.58304e+07
5.58294e+07
5.90373e+07
5.90276e+07
5.90161e+07
5.90164e+07
5.90176e+07
5.90143e+07
6.22737e+07
6.22545e+07
6.22254e+07
6.2211e+07
6.22118e+07
6.22101e+07
6.57166e+07
6.56926e+07
6.56534e+07
6.56257e+07
6.56199e+07
6.5616e+07
6.92781e+07
6.92625e+07
6.92373e+07
6.92133e+07
6.91995e+07
6.91912e+07
7.24276e+07
7.24226e+07
7.24135e+07
7.23994e+07
7.23857e+07
7.23763e+07
7.49558e+07
7.49538e+07
7.49473e+07
7.4934e+07
7.4922e+07
7.49141e+07
7.69734e+07
7.69711e+07
7.6963e+07
7.69482e+07
7.69378e+07
7.69317e+07
7.85988e+07
7.85963e+07
7.85869e+07
7.85704e+07
7.85606e+07
7.85558e+07
7.98746e+07
7.98735e+07
7.98631e+07
7.98447e+07
7.98353e+07
7.98323e+07
8.08331e+07
8.08329e+07
8.08294e+07
8.08222e+07
8.08194e+07
8.08215e+07
8.1555e+07
8.15517e+07
8.15525e+07
8.15609e+07
8.15748e+07
8.15837e+07
8.20409e+07
8.20371e+07
8.20469e+07
8.20729e+07
8.20997e+07
8.21067e+07
8.25185e+07
8.25138e+07
8.25154e+07
8.253e+07
8.25421e+07
8.25424e+07
8.30177e+07
8.30187e+07
8.30185e+07
8.30178e+07
8.30123e+07
8.30072e+07
8.35031e+07
8.35054e+07
8.35082e+07
8.35055e+07
8.34984e+07
8.34939e+07
8.40181e+07
8.40224e+07
8.40279e+07
8.40271e+07
8.40243e+07
8.40234e+07
8.45235e+07
8.45299e+07
8.45377e+07
8.45401e+07
8.45428e+07
8.45453e+07
8.50285e+07
8.50367e+07
8.50473e+07
8.5052e+07
8.50571e+07
8.50616e+07
8.55066e+07
8.55105e+07
8.55205e+07
8.55328e+07
8.55516e+07
8.55634e+07
8.61175e+07
8.6114e+07
8.612e+07
8.61369e+07
8.61734e+07
8.61932e+07
8.70994e+07
8.70963e+07
8.70986e+07
8.7101e+07
8.71121e+07
8.71181e+07
8.83414e+07
8.83388e+07
8.83292e+07
8.83155e+07
8.83056e+07
8.83093e+07
8.93469e+07
8.93402e+07
8.93247e+07
8.9332e+07
8.9355e+07
8.93775e+07
9.03503e+07
9.03457e+07
9.0334e+07
9.03335e+07
9.03431e+07
9.03553e+07
9.14661e+07
9.14693e+07
9.14725e+07
9.14671e+07
9.14517e+07
9.14436e+07
9.24128e+07
9.24155e+07
9.24203e+07
9.24243e+07
9.24235e+07
9.24208e+07
9.33053e+07
9.33056e+07
9.33062e+07
9.33088e+07
9.33107e+07
9.33103e+07
9.41304e+07
9.41305e+07
9.41307e+07
9.4133e+07
9.41362e+07
9.41372e+07
9.48957e+07
9.48968e+07
9.48978e+07
9.49009e+07
9.49062e+07
9.49097e+07
9.56127e+07
9.56146e+07
9.56164e+07
9.5619e+07
9.56223e+07
9.56254e+07
9.62824e+07
9.62842e+07
9.62864e+07
9.62883e+07
9.62892e+07
9.629e+07
9.69304e+07
9.69313e+07
9.6933e+07
9.69345e+07
9.69348e+07
9.69346e+07
9.75834e+07
9.75833e+07
9.75843e+07
9.75855e+07
9.75857e+07
9.75853e+07
9.82603e+07
9.82595e+07
9.82596e+07
9.82607e+07
9.82616e+07
9.82619e+07
9.89706e+07
9.89691e+07
9.89678e+07
9.8969e+07
9.89721e+07
9.89745e+07
9.97255e+07
9.97236e+07
9.97211e+07
9.97213e+07
9.97246e+07
9.9728e+07
1.00526e+08
1.00524e+08
1.00522e+08
1.00521e+08
1.00521e+08
1.00523e+08
1.01369e+08
1.01368e+08
1.01366e+08
1.01364e+08
1.01363e+08
1.01363e+08
1.02263e+08
1.02262e+08
1.02259e+08
1.02257e+08
1.02256e+08
1.02255e+08
1.03217e+08
1.03215e+08
1.03213e+08
1.03211e+08
1.03209e+08
1.03209e+08
1.04231e+08
1.0423e+08
1.04228e+08
1.04226e+08
1.04224e+08
1.04224e+08
1.05297e+08
1.05297e+08
1.05296e+08
1.05295e+08
1.05294e+08
1.05294e+08
1.06403e+08
1.06403e+08
1.06404e+08
1.06404e+08
1.06404e+08
1.06405e+08
1.07549e+08
1.07548e+08
1.07549e+08
1.07551e+08
1.07553e+08
1.07553e+08
1.08758e+08
1.08756e+08
1.08755e+08
1.08757e+08
1.0876e+08
1.08761e+08
1.10063e+08
1.1006e+08
1.10059e+08
1.10059e+08
1.10061e+08
1.10063e+08
1.11478e+08
1.11477e+08
1.11475e+08
1.11474e+08
1.11475e+08
1.11477e+08
1.12978e+08
1.12979e+08
1.12979e+08
1.12979e+08
1.12978e+08
1.1298e+08
1.14517e+08
1.14519e+08
1.14522e+08
1.14524e+08
1.14525e+08
1.14526e+08
1.16071e+08
1.16072e+08
1.16076e+08
1.16082e+08
1.16086e+08
1.16088e+08
1.17678e+08
1.17676e+08
1.17679e+08
1.17688e+08
1.17696e+08
1.177e+08
1.19426e+08
1.19414e+08
1.19405e+08
1.19409e+08
1.19418e+08
1.19426e+08
1.21588e+08
1.21576e+08
1.21559e+08
1.21552e+08
1.21553e+08
1.21559e+08
1.24068e+08
1.24074e+08
1.24073e+08
1.24063e+08
1.24055e+08
1.24052e+08
1.26282e+08
1.26293e+08
1.26303e+08
1.26304e+08
1.263e+08
1.26296e+08
1.28201e+08
1.28201e+08
1.28204e+08
1.28208e+08
1.28211e+08
1.28211e+08
1.30122e+08
1.3012e+08
1.30121e+08
1.30125e+08
1.3013e+08
1.30132e+08
1.32093e+08
1.32092e+08
1.32093e+08
1.32095e+08
1.32099e+08
1.32101e+08
1.34068e+08
1.34069e+08
1.3407e+08
1.34071e+08
1.34071e+08
1.34071e+08
1.36012e+08
1.36013e+08
1.36014e+08
1.36016e+08
1.36016e+08
1.36017e+08
1.37938e+08
1.37939e+08
1.3794e+08
1.37942e+08
1.37944e+08
1.37945e+08
1.39854e+08
1.39855e+08
1.39856e+08
1.39858e+08
1.3986e+08
1.39861e+08
1.41752e+08
1.41753e+08
1.41755e+08
1.41756e+08
1.41758e+08
1.41759e+08
1.43622e+08
1.43624e+08
1.43626e+08
1.43627e+08
1.43628e+08
1.43629e+08
1.45453e+08
1.45455e+08
1.45458e+08
1.4546e+08
1.4546e+08
1.45461e+08
1.47227e+08
1.47231e+08
1.47235e+08
1.47237e+08
1.47238e+08
1.47238e+08
1.4892e+08
1.48926e+08
1.48933e+08
1.48937e+08
1.48939e+08
1.48939e+08
1.50505e+08
1.50513e+08
1.50524e+08
1.50531e+08
1.50537e+08
1.50539e+08
1.51967e+08
1.51975e+08
1.51987e+08
1.51998e+08
1.52008e+08
1.52013e+08
1.5334e+08
1.53346e+08
1.53357e+08
1.53369e+08
1.53379e+08
1.53382e+08
1.5469e+08
1.54696e+08
1.54706e+08
1.54714e+08
1.54718e+08
1.54718e+08
1.56082e+08
1.5609e+08
1.56099e+08
1.561e+08
1.56095e+08
1.56091e+08
1.57513e+08
1.57521e+08
1.57536e+08
1.57547e+08
1.57556e+08
1.57563e+08
1.58962e+08
1.58955e+08
1.58964e+08
1.58991e+08
1.59045e+08
1.59082e+08
1.60805e+08
1.60789e+08
1.60784e+08
1.60805e+08
1.6086e+08
1.60899e+08
1.62981e+08
1.62957e+08
1.62946e+08
1.62967e+08
1.62996e+08
1.63017e+08
1.65178e+08
1.65156e+08
1.6514e+08
1.65155e+08
1.65176e+08
1.65188e+08
1.67713e+08
1.67702e+08
1.67695e+08
1.67694e+08
1.677e+08
1.67706e+08
1.70647e+08
1.70647e+08
1.70649e+08
1.70641e+08
1.70638e+08
1.70639e+08
1.73971e+08
1.73971e+08
1.73972e+08
1.73968e+08
1.73962e+08
1.73957e+08
1.77731e+08
1.77727e+08
1.77724e+08
1.77721e+08
1.77708e+08
1.77684e+08
1.81627e+08
1.81593e+08
1.81559e+08
1.81552e+08
1.81559e+08
1.81562e+08
1.87803e+08
1.8776e+08
1.87699e+08
1.87676e+08
1.87677e+08
1.87691e+08
1.9595e+08
1.95935e+08
1.95895e+08
1.95855e+08
1.95831e+08
1.95824e+08
2.02408e+08
2.02402e+08
2.02385e+08
2.02348e+08
2.02313e+08
2.02285e+08
2.06354e+08
2.0635e+08
2.06351e+08
2.06337e+08
2.06318e+08
2.06298e+08
2.0905e+08
2.09052e+08
2.09066e+08
2.09077e+08
2.09075e+08
2.09066e+08
2.11247e+08
2.1125e+08
2.1126e+08
2.11267e+08
2.11267e+08
2.11264e+08
2.13187e+08
2.13188e+08
2.13197e+08
2.13207e+08
2.13218e+08
2.13221e+08
2.15044e+08
2.15041e+08
2.15046e+08
2.15056e+08
2.15069e+08
2.1507e+08
2.16926e+08
2.1692e+08
2.16913e+08
2.16909e+08
2.16906e+08
2.16901e+08
2.18768e+08
2.18767e+08
2.1876e+08
2.18751e+08
2.18741e+08
2.18735e+08
2.20604e+08
2.20603e+08
2.206e+08
2.20594e+08
2.20588e+08
2.20585e+08
2.22501e+08
2.22499e+08
2.22498e+08
2.22494e+08
2.2249e+08
2.22487e+08
2.24537e+08
2.24531e+08
2.24521e+08
2.2451e+08
2.24501e+08
2.24498e+08
2.26883e+08
2.26873e+08
2.26855e+08
2.26837e+08
2.26831e+08
2.26831e+08
2.29556e+08
2.2955e+08
2.29535e+08
2.29524e+08
2.29525e+08
2.29531e+08
2.32236e+08
2.32237e+08
2.32232e+08
2.32229e+08
2.32233e+08
2.32239e+08
2.34645e+08
2.3465e+08
2.34656e+08
2.34661e+08
2.34666e+08
2.34671e+08
2.36755e+08
2.36761e+08
2.36772e+08
2.36783e+08
2.36791e+08
2.36796e+08
2.38637e+08
2.38642e+08
2.38652e+08
2.38664e+08
2.38673e+08
2.38678e+08
2.40357e+08
2.40358e+08
2.40364e+08
2.40374e+08
2.40383e+08
2.40388e+08
2.41987e+08
2.41985e+08
2.41983e+08
2.41987e+08
2.41993e+08
2.41998e+08
2.43548e+08
2.43549e+08
2.43541e+08
2.43533e+08
2.43531e+08
2.43533e+08
2.44918e+08
2.44924e+08
2.44922e+08
2.44909e+08
2.44898e+08
2.44896e+08
2.46021e+08
2.46029e+08
2.46041e+08
2.46038e+08
2.46028e+08
2.46026e+08
2.46877e+08
2.46883e+08
2.469e+08
2.46911e+08
2.46924e+08
2.46932e+08
2.47595e+08
2.47587e+08
2.4759e+08
2.47608e+08
2.47664e+08
2.47693e+08
2.48568e+08
2.48555e+08
2.48551e+08
2.48567e+08
2.48616e+08
2.48642e+08
2.49799e+08
2.49795e+08
2.49792e+08
2.49793e+08
2.49805e+08
2.49812e+08
2.50973e+08
2.50973e+08
2.50972e+08
2.50971e+08
2.50971e+08
2.5097e+08
2.52077e+08
2.52076e+08
2.52076e+08
2.52076e+08
2.52075e+08
2.52072e+08
2.53171e+08
2.53166e+08
2.53163e+08
2.5316e+08
2.53157e+08
2.53154e+08
2.54302e+08
2.54297e+08
2.5429e+08
2.54282e+08
2.54272e+08
2.54267e+08
2.55363e+08
2.55361e+08
2.55354e+08
2.55343e+08
2.55329e+08
2.55323e+08
2.56241e+08
2.56241e+08
2.56238e+08
2.5623e+08
2.56222e+08
2.56216e+08
2.5698e+08
2.56979e+08
2.56978e+08
2.56975e+08
2.56972e+08
2.56969e+08
2.57645e+08
2.57644e+08
2.57643e+08
2.57643e+08
2.57644e+08
2.57642e+08
2.58258e+08
2.58257e+08
2.58255e+08
2.58255e+08
2.58255e+08
2.58255e+08
2.58816e+08
2.58815e+08
2.58813e+08
2.58811e+08
2.5881e+08
2.58809e+08
2.59317e+08
2.59316e+08
2.59314e+08
2.59311e+08
2.59309e+08
2.59307e+08
2.59783e+08
2.59781e+08
2.59779e+08
2.59776e+08
2.59774e+08
2.59773e+08
2.60232e+08
2.60229e+08
2.60227e+08
2.60225e+08
2.60225e+08
2.60225e+08
2.60676e+08
2.60674e+08
2.60671e+08
2.6067e+08
2.60674e+08
2.60675e+08
2.61135e+08
2.61133e+08
2.6113e+08
2.61132e+08
2.61138e+08
2.6114e+08
2.61631e+08
2.6163e+08
2.61629e+08
2.61632e+08
2.61637e+08
2.61636e+08
2.62199e+08
2.62199e+08
2.62202e+08
2.62207e+08
2.62209e+08
2.62205e+08
2.62869e+08
2.62864e+08
2.62862e+08
2.62864e+08
2.62865e+08
2.62862e+08
2.63796e+08
2.63788e+08
2.63771e+08
2.63756e+08
2.63756e+08
2.6376e+08
2.64876e+08
2.64876e+08
2.64856e+08
2.64822e+08
2.64809e+08
2.64813e+08
2.65953e+08
2.6596e+08
2.65956e+08
2.65933e+08
2.65923e+08
2.65929e+08
2.67162e+08
2.67168e+08
2.67175e+08
2.67178e+08
2.67181e+08
2.67186e+08
2.68578e+08
2.68579e+08
2.68582e+08
2.68587e+08
2.68592e+08
2.68595e+08
2.70167e+08
2.70161e+08
2.70155e+08
2.70146e+08
2.70143e+08
2.70142e+08
2.71749e+08
2.71744e+08
2.71746e+08
2.71731e+08
2.71723e+08
2.7172e+08
2.73362e+08
2.73349e+08
2.73341e+08
2.73324e+08
2.73319e+08
2.73316e+08
2.75221e+08
2.75208e+08
2.75195e+08
2.75184e+08
2.75181e+08
2.75178e+08
2.77027e+08
2.77017e+08
2.77016e+08
2.77035e+08
2.7706e+08
2.77082e+08
2.7915e+08
2.79146e+08
2.79145e+08
2.79159e+08
2.79179e+08
2.79218e+08
2.8205e+08
2.82051e+08
2.82043e+08
2.82032e+08
2.82032e+08
2.82048e+08
2.84723e+08
2.84732e+08
2.84732e+08
2.8472e+08
2.84701e+08
2.84685e+08
2.87137e+08
2.87098e+08
2.87042e+08
2.86975e+08
2.86926e+08
2.86894e+08
2.89928e+08
2.89916e+08
2.89909e+08
2.89959e+08
2.89997e+08
2.90014e+08
2.93127e+08
2.93144e+08
2.93142e+08
2.93138e+08
2.93187e+08
2.93254e+08
2.96061e+08
2.96041e+08
2.96033e+08
2.96025e+08
2.96005e+08
2.96014e+08
2.98301e+08
2.98286e+08
2.98286e+08
2.98298e+08
2.98298e+08
2.983e+08
2.99793e+08
2.99795e+08
2.99784e+08
2.99764e+08
2.99769e+08
2.99783e+08
3.01138e+08
3.01143e+08
3.01139e+08
3.01122e+08
3.01113e+08
3.01117e+08
3.0248e+08
3.02478e+08
3.02471e+08
3.02461e+08
3.02446e+08
3.02444e+08
3.03902e+08
3.03889e+08
3.03866e+08
3.03854e+08
3.03858e+08
3.03878e+08
3.05904e+08
3.05893e+08
3.05883e+08
3.05883e+08
3.05901e+08
3.05928e+08
3.08647e+08
3.08643e+08
3.08652e+08
3.08666e+08
3.08682e+08
3.08689e+08
3.11594e+08
3.11589e+08
3.11592e+08
3.11601e+08
3.11604e+08
3.11597e+08
3.1435e+08
3.14345e+08
3.14337e+08
3.14336e+08
3.14333e+08
3.1433e+08
3.16921e+08
3.1692e+08
3.16916e+08
3.16916e+08
3.16914e+08
3.16914e+08
3.19471e+08
3.19474e+08
3.19475e+08
3.19475e+08
3.19473e+08
3.1947e+08
3.221e+08
3.22104e+08
3.22108e+08
3.22108e+08
3.22107e+08
3.22105e+08
3.24813e+08
3.24816e+08
3.24819e+08
3.2482e+08
3.2482e+08
3.2482e+08
3.27611e+08
3.27611e+08
3.27612e+08
3.27612e+08
3.27611e+08
3.27612e+08
3.30508e+08
3.30506e+08
3.30504e+08
3.30503e+08
3.30502e+08
3.30503e+08
3.33535e+08
3.33531e+08
3.33526e+08
3.33523e+08
3.33521e+08
3.33523e+08
3.3673e+08
3.36722e+08
3.36711e+08
3.36705e+08
3.36703e+08
3.36708e+08
3.40181e+08
3.40168e+08
3.40152e+08
3.40143e+08
3.40142e+08
3.4015e+08
3.43984e+08
3.43971e+08
3.43956e+08
3.43948e+08
3.43947e+08
3.43955e+08
3.48083e+08
3.48077e+08
3.4807e+08
3.48066e+08
3.48061e+08
3.48059e+08
3.52247e+08
3.52244e+08
3.52241e+08
3.52234e+08
3.52223e+08
3.52215e+08
3.56342e+08
3.56337e+08
3.56331e+08
3.5632e+08
3.56305e+08
3.56297e+08
3.60391e+08
3.60384e+08
3.60375e+08
3.6036e+08
3.60344e+08
3.60337e+08
3.64456e+08
3.6444e+08
3.64419e+08
3.64396e+08
3.64381e+08
3.64376e+08
3.68528e+08
3.68504e+08
3.6847e+08
3.68438e+08
3.68429e+08
3.68433e+08
3.72638e+08
3.72624e+08
3.72598e+08
3.72574e+08
3.72579e+08
3.72595e+08
3.77174e+08
3.77172e+08
3.77161e+08
3.77159e+08
3.77173e+08
3.77195e+08
3.82693e+08
3.82689e+08
3.82683e+08
3.82692e+08
3.82708e+08
3.82731e+08
3.89397e+08
3.89392e+08
3.89388e+08
3.894e+08
3.89423e+08
3.89439e+08
3.96898e+08
3.96903e+08
3.96911e+08
3.96931e+08
3.96965e+08
3.96975e+08
4.04906e+08
4.04908e+08
4.0492e+08
4.04966e+08
4.05033e+08
4.05058e+08
4.14321e+08
4.14312e+08
4.14327e+08
4.14388e+08
4.1448e+08
4.14527e+08
4.2561e+08
4.25611e+08
4.25626e+08
4.25646e+08
4.25665e+08
4.2568e+08
4.36394e+08
4.36402e+08
4.36406e+08
4.36384e+08
4.36336e+08
4.36309e+08
4.44896e+08
4.44893e+08
4.44882e+08
4.44863e+08
4.44828e+08
4.44806e+08
4.51956e+08
4.5195e+08
4.51929e+08
4.51908e+08
4.51877e+08
4.51861e+08
4.58047e+08
4.58049e+08
4.58033e+08
4.58008e+08
4.57973e+08
4.57954e+08
4.63108e+08
4.63115e+08
4.63111e+08
4.63093e+08
4.63059e+08
4.63039e+08
4.67196e+08
4.67204e+08
4.67209e+08
4.672e+08
4.67175e+08
4.67158e+08
4.70632e+08
4.70637e+08
4.70642e+08
4.70638e+08
4.70621e+08
4.70609e+08
4.73654e+08
4.73656e+08
4.7366e+08
4.73656e+08
4.73644e+08
4.73635e+08
4.76408e+08
4.76408e+08
4.76414e+08
4.76412e+08
4.76402e+08
4.76395e+08
4.79018e+08
4.79019e+08
4.79028e+08
4.79029e+08
4.79024e+08
4.79019e+08
4.81608e+08
4.81612e+08
4.81623e+08
4.81626e+08
4.81625e+08
4.81621e+08
4.84342e+08
4.84349e+08
4.84351e+08
4.84346e+08
4.84344e+08
4.84342e+08
4.87392e+08
4.87404e+08
4.87406e+08
4.874e+08
4.87399e+08
4.87403e+08
4.90713e+08
4.9072e+08
4.90739e+08
4.90769e+08
4.90805e+08
4.90833e+08
4.94899e+08
4.94895e+08
4.94914e+08
4.94957e+08
4.94999e+08
4.95014e+08
4.99482e+08
4.99454e+08
4.99429e+08
4.99417e+08
4.99423e+08
4.99412e+08
5.04335e+08
5.04273e+08
5.042e+08
5.04164e+08
5.04163e+08
5.04157e+08
5.09631e+08
5.09614e+08
5.09609e+08
5.0962e+08
5.09611e+08
5.09612e+08
5.1372e+08
5.13719e+08
5.13713e+08
5.13705e+08
5.13697e+08
5.13698e+08
5.16932e+08
5.16915e+08
5.16883e+08
5.16848e+08
5.16839e+08
5.16849e+08
5.20595e+08
5.20593e+08
5.20596e+08
5.20603e+08
5.20608e+08
5.2061e+08
5.24421e+08
5.24427e+08
5.24442e+08
5.24457e+08
5.24459e+08
5.24458e+08
5.28228e+08
5.2824e+08
5.28258e+08
5.28272e+08
5.28273e+08
5.28271e+08
5.31806e+08
5.31811e+08
5.31813e+08
5.31812e+08
5.31812e+08
5.3181e+08
5.35131e+08
5.35127e+08
5.35117e+08
5.3511e+08
5.3511e+08
5.3511e+08
5.38316e+08
5.38315e+08
5.38311e+08
5.38309e+08
5.38309e+08
5.38309e+08
5.41429e+08
5.41434e+08
5.41439e+08
5.41442e+08
5.4144e+08
5.41438e+08
5.444e+08
5.44404e+08
5.44408e+08
5.44409e+08
5.44404e+08
5.44399e+08
5.47186e+08
5.47184e+08
5.4718e+08
5.47176e+08
5.47172e+08
5.47168e+08
5.49831e+08
5.49826e+08
5.49819e+08
5.49814e+08
5.49812e+08
5.4981e+08
5.52398e+08
5.52394e+08
5.5239e+08
5.52387e+08
5.52385e+08
5.52383e+08
5.54901e+08
5.549e+08
5.54899e+08
5.54897e+08
5.54894e+08
5.54892e+08
5.57335e+08
5.57334e+08
5.57333e+08
5.57331e+08
5.57329e+08
5.57327e+08
5.59705e+08
5.59704e+08
5.59702e+08
5.597e+08
5.59699e+08
5.59698e+08
5.62034e+08
5.62031e+08
5.62028e+08
5.62026e+08
5.62027e+08
5.62027e+08
5.64348e+08
5.64345e+08
5.64342e+08
5.64341e+08
5.64343e+08
5.64344e+08
5.66672e+08
5.6667e+08
5.66669e+08
5.66668e+08
5.66671e+08
5.66672e+08
5.69006e+08
5.69005e+08
5.69004e+08
5.69004e+08
5.69006e+08
5.69007e+08
5.71347e+08
5.71345e+08
5.71343e+08
5.71343e+08
5.71346e+08
5.71347e+08
5.73701e+08
5.73699e+08
5.73697e+08
5.73697e+08
5.737e+08
5.73702e+08
5.76084e+08
5.76083e+08
5.76082e+08
5.76083e+08
5.76086e+08
5.76088e+08
5.78489e+08
5.78488e+08
5.78488e+08
5.7849e+08
5.78492e+08
5.78494e+08
5.80899e+08
5.80899e+08
5.80899e+08
5.80901e+08
5.80903e+08
5.80904e+08
5.83313e+08
5.83313e+08
5.83314e+08
5.83315e+08
5.83317e+08
5.83318e+08
5.85727e+08
5.85728e+08
5.85728e+08
5.85729e+08
5.85731e+08
5.85732e+08
5.88141e+08
5.88141e+08
5.88141e+08
5.88142e+08
5.88144e+08
5.88145e+08
5.90554e+08
5.90554e+08
5.90555e+08
5.90556e+08
5.90558e+08
5.90558e+08
5.92964e+08
5.92964e+08
5.92965e+08
5.92966e+08
5.92968e+08
5.92968e+08
5.95371e+08
5.95371e+08
5.95371e+08
5.95372e+08
5.95374e+08
5.95375e+08
5.97778e+08
5.97778e+08
5.97779e+08
5.9778e+08
5.97781e+08
5.97782e+08
6.00188e+08
6.00189e+08
6.00189e+08
6.0019e+08
6.00192e+08
6.00193e+08
6.026e+08
6.02601e+08
6.02601e+08
6.02602e+08
6.02604e+08
6.02605e+08
6.05012e+08
6.05013e+08
6.05014e+08
6.05015e+08
6.05016e+08
6.05017e+08
6.07423e+08
6.07424e+08
6.07424e+08
6.07426e+08
6.07427e+08
6.07428e+08
6.09833e+08
6.09833e+08
6.09834e+08
6.09835e+08
6.09836e+08
6.09837e+08
6.12242e+08
6.12242e+08
6.12242e+08
6.12243e+08
6.12245e+08
6.12246e+08
6.1465e+08
6.1465e+08
6.14651e+08
6.14652e+08
6.14653e+08
6.14654e+08
6.17059e+08
6.17059e+08
6.1706e+08
6.17061e+08
6.17062e+08
6.17063e+08
6.19468e+08
6.19468e+08
6.19469e+08
6.1947e+08
6.19471e+08
6.19472e+08
6.21877e+08
6.21877e+08
6.21878e+08
6.21879e+08
6.2188e+08
6.21881e+08
6.24285e+08
6.24285e+08
6.24286e+08
6.24287e+08
6.24288e+08
6.24289e+08
6.26691e+08
6.26691e+08
6.26692e+08
6.26693e+08
6.26695e+08
6.26696e+08
6.29092e+08
6.29092e+08
6.29093e+08
6.29094e+08
6.29096e+08
6.29098e+08
6.31488e+08
6.31488e+08
6.31489e+08
6.3149e+08
6.31492e+08
6.31493e+08
6.3388e+08
6.3388e+08
6.33881e+08
6.33882e+08
6.33883e+08
6.33884e+08
6.3627e+08
6.36271e+08
6.36271e+08
6.36272e+08
6.36274e+08
6.36274e+08
6.38659e+08
6.3866e+08
6.3866e+08
6.38661e+08
6.38662e+08
6.38663e+08
6.41049e+08
6.41049e+08
6.41049e+08
6.4105e+08
6.41052e+08
6.41052e+08
6.43439e+08
6.43439e+08
6.4344e+08
6.43441e+08
6.43442e+08
6.43443e+08
6.45828e+08
6.45829e+08
6.45829e+08
6.4583e+08
6.45831e+08
6.45832e+08
6.48216e+08
6.48216e+08
6.48216e+08
6.48217e+08
6.48219e+08
6.48219e+08
6.50601e+08
6.50601e+08
6.50601e+08
6.50602e+08
6.50604e+08
6.50605e+08
6.52986e+08
6.52986e+08
6.52986e+08
6.52987e+08
6.52989e+08
6.5299e+08
6.5537e+08
6.5537e+08
6.55371e+08
6.55372e+08
6.55373e+08
6.55374e+08
6.57754e+08
6.57754e+08
6.57755e+08
6.57756e+08
6.57757e+08
6.57758e+08
6.60139e+08
6.60139e+08
6.6014e+08
6.60141e+08
6.60142e+08
6.60143e+08
6.62524e+08
6.62524e+08
6.62525e+08
6.62526e+08
6.62527e+08
6.62528e+08
6.64909e+08
6.64909e+08
6.6491e+08
6.64911e+08
6.64912e+08
6.64913e+08
6.67295e+08
6.67295e+08
6.67296e+08
6.67297e+08
6.67298e+08
6.67299e+08
6.69682e+08
6.69682e+08
6.69683e+08
6.69684e+08
6.69685e+08
6.69686e+08
6.7207e+08
6.7207e+08
6.72071e+08
6.72072e+08
6.72073e+08
6.72074e+08
6.74458e+08
6.74458e+08
6.74459e+08
6.7446e+08
6.74461e+08
6.74462e+08
6.76847e+08
6.76847e+08
6.76847e+08
6.76848e+08
6.7685e+08
6.76851e+08
6.79237e+08
6.79237e+08
6.79238e+08
6.79239e+08
6.7924e+08
6.79241e+08
6.81629e+08
6.81629e+08
6.8163e+08
6.8163e+08
6.81632e+08
6.81632e+08
6.84021e+08
6.84022e+08
6.84023e+08
6.84024e+08
6.84025e+08
6.84026e+08
6.86414e+08
6.86414e+08
6.86416e+08
6.86417e+08
6.86418e+08
6.86419e+08
6.88807e+08
6.88807e+08
6.88807e+08
6.88808e+08
6.8881e+08
6.88811e+08
6.91202e+08
6.91201e+08
6.91201e+08
6.91202e+08
6.91204e+08
6.91205e+08
6.93601e+08
6.93601e+08
6.93601e+08
6.93602e+08
6.93603e+08
6.93604e+08
6.96003e+08
6.96003e+08
6.96004e+08
6.96005e+08
6.96006e+08
6.96007e+08
6.98404e+08
6.98405e+08
6.98405e+08
6.98407e+08
6.98408e+08
6.98408e+08
7.00803e+08
7.00803e+08
7.00804e+08
7.00805e+08
7.00806e+08
7.00807e+08
7.03199e+08
7.03199e+08
7.032e+08
7.03201e+08
7.03202e+08
7.03202e+08
7.0559e+08
7.0559e+08
7.05591e+08
7.05592e+08
7.05593e+08
7.05594e+08
7.07976e+08
7.07976e+08
7.07977e+08
7.07978e+08
7.07979e+08
7.0798e+08
7.10356e+08
7.10357e+08
7.10358e+08
7.10359e+08
7.1036e+08
7.1036e+08
7.1273e+08
7.12731e+08
7.12731e+08
7.12732e+08
7.12733e+08
7.12734e+08
7.15097e+08
7.15098e+08
7.15099e+08
7.151e+08
7.151e+08
7.15101e+08
7.17457e+08
7.17458e+08
7.17459e+08
7.1746e+08
7.1746e+08
7.17461e+08
7.1981e+08
7.1981e+08
7.19811e+08
7.19812e+08
7.19813e+08
7.19813e+08
7.22155e+08
7.22156e+08
7.22156e+08
7.22157e+08
7.22158e+08
7.22159e+08
7.24494e+08
7.24494e+08
7.24495e+08
7.24495e+08
7.24496e+08
7.24497e+08
7.26824e+08
7.26824e+08
7.26825e+08
7.26826e+08
7.26827e+08
7.26827e+08
7.29144e+08
7.29144e+08
7.29145e+08
7.29146e+08
7.29147e+08
7.29147e+08
7.3145e+08
7.31451e+08
7.31452e+08
7.31453e+08
7.31454e+08
7.31454e+08
7.33743e+08
7.33744e+08
7.33745e+08
7.33746e+08
7.33747e+08
7.33747e+08
7.36023e+08
7.36024e+08
7.36025e+08
7.36026e+08
7.36027e+08
7.36027e+08
7.38289e+08
7.3829e+08
7.38291e+08
7.38292e+08
7.38293e+08
7.38293e+08
7.40538e+08
7.40539e+08
7.4054e+08
7.40541e+08
7.40541e+08
7.40541e+08
7.42767e+08
7.42767e+08
7.42768e+08
7.42769e+08
7.42769e+08
7.42769e+08
7.44973e+08
7.44974e+08
7.44975e+08
7.44975e+08
7.44976e+08
7.44975e+08
7.47157e+08
7.47158e+08
7.47158e+08
7.47159e+08
7.47159e+08
7.47159e+08
7.49318e+08
7.49319e+08
7.49319e+08
7.4932e+08
7.4932e+08
7.4932e+08
7.51455e+08
7.51456e+08
7.51457e+08
7.51457e+08
7.51457e+08
7.51457e+08
7.53569e+08
7.53569e+08
7.5357e+08
7.5357e+08
7.53571e+08
7.5357e+08
7.55656e+08
7.55657e+08
7.55658e+08
7.55658e+08
7.55658e+08
7.55658e+08
7.57718e+08
7.57718e+08
7.57719e+08
7.57719e+08
7.5772e+08
7.57719e+08
7.59754e+08
7.59755e+08
7.59756e+08
7.59756e+08
7.59756e+08
7.59756e+08
7.61767e+08
7.61768e+08
7.61769e+08
7.61769e+08
7.6177e+08
7.61769e+08
7.63756e+08
7.63756e+08
7.63757e+08
7.63758e+08
7.63758e+08
7.63758e+08
7.65716e+08
7.65717e+08
7.65718e+08
7.65718e+08
7.65718e+08
7.65718e+08
7.67646e+08
7.67647e+08
7.67648e+08
7.67648e+08
7.67648e+08
7.67648e+08
7.69546e+08
7.69547e+08
7.69547e+08
7.69548e+08
7.69548e+08
7.69547e+08
7.71416e+08
7.71417e+08
7.71418e+08
7.71418e+08
7.71418e+08
7.71418e+08
7.73259e+08
7.73259e+08
7.7326e+08
7.7326e+08
7.7326e+08
7.7326e+08
7.75073e+08
7.75073e+08
7.75074e+08
7.75074e+08
7.75074e+08
7.75074e+08
7.76857e+08
7.76857e+08
7.76858e+08
7.76858e+08
7.76858e+08
7.76858e+08
7.78611e+08
7.78612e+08
7.78612e+08
7.78613e+08
7.78613e+08
7.78612e+08
7.80336e+08
7.80336e+08
7.80337e+08
7.80337e+08
7.80337e+08
7.80337e+08
7.8203e+08
7.82031e+08
7.82031e+08
7.82032e+08
7.82032e+08
7.82031e+08
7.83694e+08
7.83695e+08
7.83695e+08
7.83696e+08
7.83695e+08
7.83695e+08
7.85327e+08
7.85328e+08
7.85328e+08
7.85328e+08
7.85328e+08
7.85328e+08
7.86929e+08
7.8693e+08
7.8693e+08
7.8693e+08
7.8693e+08
7.8693e+08
7.88501e+08
7.88502e+08
7.88502e+08
7.88502e+08
7.88502e+08
7.88502e+08
7.90043e+08
7.90044e+08
7.90044e+08
7.90045e+08
7.90045e+08
7.90044e+08
7.91556e+08
7.91556e+08
7.91557e+08
7.91557e+08
7.91557e+08
7.91556e+08
7.93035e+08
7.93036e+08
7.93036e+08
7.93036e+08
7.93036e+08
7.93036e+08
7.9448e+08
7.94481e+08
7.94481e+08
7.94481e+08
7.94481e+08
7.9448e+08
7.9589e+08
7.95891e+08
7.95891e+08
7.95891e+08
7.95891e+08
7.9589e+08
7.97267e+08
7.97267e+08
7.97267e+08
7.97267e+08
7.97267e+08
7.97267e+08
7.98612e+08
7.98612e+08
7.98612e+08
7.98612e+08
7.98612e+08
7.98612e+08
7.99928e+08
7.99928e+08
7.99929e+08
7.99929e+08
7.99929e+08
7.99929e+08
8.01218e+08
8.01218e+08
8.01219e+08
8.01219e+08
8.01219e+08
8.01219e+08
8.0248e+08
8.0248e+08
8.02481e+08
8.02481e+08
8.02482e+08
8.02481e+08
8.03709e+08
8.03709e+08
8.0371e+08
8.0371e+08
8.0371e+08
8.0371e+08
8.049e+08
8.04901e+08
8.04902e+08
8.04902e+08
8.04901e+08
8.04901e+08
8.06053e+08
8.06054e+08
8.06054e+08
8.06054e+08
8.06054e+08
8.06053e+08
8.07168e+08
8.07168e+08
8.07168e+08
8.07168e+08
8.07168e+08
8.07167e+08
8.08249e+08
8.0825e+08
8.08249e+08
8.08249e+08
8.08249e+08
8.08249e+08
8.09308e+08
8.09308e+08
8.09309e+08
8.09309e+08
8.09309e+08
8.09309e+08
8.10351e+08
8.10351e+08
8.10352e+08
8.10353e+08
8.10353e+08
8.10353e+08
8.11369e+08
8.11369e+08
8.1137e+08
8.11371e+08
8.11371e+08
8.1137e+08
8.1235e+08
8.12351e+08
8.12351e+08
8.12351e+08
8.12351e+08
8.1235e+08
8.13293e+08
8.13294e+08
8.13294e+08
8.13294e+08
8.13293e+08
8.13293e+08
8.14205e+08
8.14205e+08
8.14205e+08
8.14205e+08
8.14204e+08
8.14204e+08
8.15088e+08
8.15089e+08
8.15089e+08
8.15089e+08
8.15088e+08
8.15088e+08
8.15947e+08
8.15947e+08
8.15947e+08
8.15947e+08
8.15946e+08
8.15946e+08
8.16782e+08
8.16782e+08
8.16782e+08
8.16782e+08
8.16781e+08
8.16781e+08
8.17598e+08
8.17599e+08
8.17598e+08
8.17598e+08
8.17597e+08
8.17597e+08
8.18401e+08
8.18401e+08
8.18401e+08
8.184e+08
8.18399e+08
8.18399e+08
8.19193e+08
8.19193e+08
8.19193e+08
8.19192e+08
8.19192e+08
8.19192e+08
8.1998e+08
8.19979e+08
8.19979e+08
8.19979e+08
8.19978e+08
8.19978e+08
8.20763e+08
8.20763e+08
8.20762e+08
8.20762e+08
8.20762e+08
8.20762e+08
8.21545e+08
8.21544e+08
8.21544e+08
8.21544e+08
8.21544e+08
8.21544e+08
8.22326e+08
8.22326e+08
8.22326e+08
8.22326e+08
8.22325e+08
8.22325e+08
8.23108e+08
8.23108e+08
8.23108e+08
8.23108e+08
8.23108e+08
8.23108e+08
8.23891e+08
8.23891e+08
8.2389e+08
8.2389e+08
8.2389e+08
8.2389e+08
8.24674e+08
8.24674e+08
8.24673e+08
8.24673e+08
8.24673e+08
8.24673e+08
8.25457e+08
8.25457e+08
8.25457e+08
8.25456e+08
8.25456e+08
8.25456e+08
8.2624e+08
8.2624e+08
8.2624e+08
8.2624e+08
8.2624e+08
8.26239e+08
8.27023e+08
8.27023e+08
8.27023e+08
8.27023e+08
8.27023e+08
8.27023e+08
8.27807e+08
8.27807e+08
8.27807e+08
8.27807e+08
8.27807e+08
8.27807e+08
8.28591e+08
8.28591e+08
8.28591e+08
8.28591e+08
8.28591e+08
8.28591e+08
8.29375e+08
8.29375e+08
8.29375e+08
8.29375e+08
8.29375e+08
8.29375e+08
8.30159e+08
8.30159e+08
8.30159e+08
8.30159e+08
8.30159e+08
8.30159e+08
8.30944e+08
8.30944e+08
8.30944e+08
8.30943e+08
8.30943e+08
8.30943e+08
8.31728e+08
8.31728e+08
8.31728e+08
8.31728e+08
8.31728e+08
8.31728e+08
8.32513e+08
8.32513e+08
8.32513e+08
8.32512e+08
8.32512e+08
8.32512e+08
8.33297e+08
8.33297e+08
8.33297e+08
8.33297e+08
8.33297e+08
8.33297e+08
8.34082e+08
8.34082e+08
8.34082e+08
8.34082e+08
8.34082e+08
8.34082e+08
8.34867e+08
8.34867e+08
8.34866e+08
8.34866e+08
8.34866e+08
8.34866e+08
8.35652e+08
8.35651e+08
8.35651e+08
8.35651e+08
8.35651e+08
8.35651e+08
8.36437e+08
8.36437e+08
8.36437e+08
8.36436e+08
8.36436e+08
8.36436e+08
8.37222e+08
8.37222e+08
8.37222e+08
8.37222e+08
8.37222e+08
8.37222e+08
8.38007e+08
8.38007e+08
8.38007e+08
8.38007e+08
8.38007e+08
8.38007e+08
8.38792e+08
8.38792e+08
8.38792e+08
8.38792e+08
8.38792e+08
8.38792e+08
8.39577e+08
8.39577e+08
8.39577e+08
8.39577e+08
8.39577e+08
8.39577e+08
8.40362e+08
8.40362e+08
8.40362e+08
8.40362e+08
8.40362e+08
8.40362e+08
8.41147e+08
8.41147e+08
8.41147e+08
8.41147e+08
8.41147e+08
8.41147e+08
8.41932e+08
8.41932e+08
8.41932e+08
8.41932e+08
8.41932e+08
8.41932e+08
8.42718e+08
8.42717e+08
8.42717e+08
8.42717e+08
8.42717e+08
8.42717e+08
8.43503e+08
8.43503e+08
8.43503e+08
8.43502e+08
8.43502e+08
8.43502e+08
8.44288e+08