/*--------------------------------*- C++ -*----------------------------------*\
| =========                 |                                                 |
| \\      /  F ield         | OpenFOAM: The Open Source CFD Toolbox           |
|  \\    /   O peration     | Version:  2206                                  |
|   \\  /    A nd           | Website:  www.openfoam.com                      |
|    \\/     M anipulation  |                                                 |
\*---------------------------------------------------------------------------*/
FoamFile
{
    version     2.0;
    format      ascii;
    arch        "LSB;label=32;scalar=64";
    class       surfaceScalarField;
    location    "7";
    object      phi;
}
// * * * * * * * * * * * * * * * * * * * * * * * * * * * * * * * * * * * * * //

dimensions      [0 3 -1 0 0 0 0];

oriented        oriented;

internalField   nonuniform List<scalar> 
65994
(
3.3383e-13
-3.33771e-13
2.59127e-12
-2.25744e-12
6.88556e-12
-4.29429e-12
7.83183e-12
-9.46274e-13
3.68802e-12
4.14381e-12
3.68802e-12
3.22821e-12
-3.56198e-12
7.02991e-12
-6.05914e-12
6.17968e-12
-3.44406e-12
6.32985e-12
-1.09645e-12
2.91968e-12
7.55398e-12
6.60769e-12
-1.38729e-12
-2.1747e-12
-5.67227e-12
-1.77416e-12
-1.06992e-11
1.58284e-12
-1.1755e-11
-4.06035e-14
-4.81384e-12
6.12804e-13
1.79385e-12
-5.89106e-12
3.71636e-12
-1.35276e-11
5.86243e-12
-2.38514e-11
1.19066e-11
-2.81695e-11
4.27747e-12
-2.16898e-11
-5.86694e-12
-1.98959e-11
2.60142e-12
1.11494e-12
5.54115e-12
2.9227e-12
6.05436e-12
1.13934e-11
1.26462e-12
9.06721e-12
-2.04571e-12
-2.55661e-12
-2.19416e-11
1.01731e-11
-9.05819e-12
2.64994e-11
-1.34036e-11
3.22079e-11
5.68486e-12
2.77563e-11
1.35189e-11
1.3332e-11
1.18676e-11
-8.60959e-12
-2.90916e-13
-8.76728e-12
1.72532e-11
-3.09477e-11
4.64148e-11
-2.34767e-11
4.07094e-11
1.92243e-11
1.49056e-11
3.76714e-11
6.29599e-12
5.3817e-11
-6.25843e-11
7.78985e-11
-5.50292e-11
4.57286e-11
8.69314e-12
2.89164e-11
3.60365e-11
9.58085e-12
5.7007e-11
1.58768e-11
2.92365e-11
-9.18207e-11
2.06478e-11
-4.64405e-11
4.62769e-12
2.47132e-11
-1.93934e-11
6.00577e-11
-2.0683e-11
5.82966e-11
-4.80619e-12
-2.8811e-11
-6.30098e-11
-5.68427e-11
-1.84088e-11
-2.10699e-11
-1.10595e-11
-7.33971e-12
4.63274e-11
-1.17155e-11
6.26724e-11
-1.65217e-11
1.18627e-11
-7.48725e-11
3.40991e-11
-4.06452e-11
5.75355e-11
-3.44959e-11
5.04304e-11
5.34325e-11
2.4183e-11
8.89198e-11
7.66132e-12
1.77846e-11
-9.26571e-11
5.07332e-11
-7.35938e-11
5.3653e-11
-3.74157e-11
3.69253e-11
7.01602e-11
2.42315e-11
1.01614e-10
3.18928e-11
-5.83846e-12
-8.68187e-11
7.91403e-12
-8.73463e-11
1.75265e-11
-4.70281e-11
7.47935e-12
8.02073e-11
3.22674e-12
1.05866e-10
3.51196e-11
-2.26167e-12
-8.4557e-11
-5.44928e-12
-8.41587e-11
-8.76822e-12
-4.37092e-11
-1.2759e-11
8.41981e-11
-1.05197e-11
1.03627e-10
2.45999e-11
3.84761e-12
-8.84046e-11
-7.97422e-12
-7.23369e-11
-2.65495e-11
-2.51339e-11
-3.33891e-11
9.10378e-11
-2.41031e-11
9.43408e-11
4.9681e-13
2.65503e-12
-9.10596e-11
-8.37059e-12
-6.13112e-11
-2.64436e-11
-7.06086e-12
-3.31656e-11
9.77597e-11
-2.45601e-11
8.57353e-11
-2.40633e-11
9.6297e-13
-9.20226e-11
-4.28374e-12
-5.60645e-11
-1.03639e-11
-9.80667e-13
-1.54062e-11
1.02802e-10
-1.5307e-11
8.56361e-11
-3.93703e-11
-1.60388e-12
-9.04187e-11
1.56179e-12
-5.92302e-11
1.12631e-11
-1.0682e-11
1.1863e-11
1.02202e-10
1.2562e-12
9.62429e-11
-3.81141e-11
2.27552e-12
-9.26943e-11
7.36906e-12
-6.43238e-11
1.56454e-11
-1.89583e-11
1.87889e-11
9.90585e-11
6.91604e-12
1.08116e-10
-3.11981e-11
7.86139e-12
-1.00556e-10
1.46818e-11
-7.11441e-11
1.39274e-11
-1.82039e-11
1.1977e-11
1.01009e-10
3.19996e-12
1.16893e-10
-2.79981e-11
6.63749e-12
-1.07193e-10
1.25082e-11
-7.70148e-11
1.33883e-11
-1.9084e-11
8.37915e-12
1.06018e-10
9.26004e-13
1.24346e-10
-2.70721e-11
5.42399e-12
-1.12617e-10
9.29646e-12
-8.08873e-11
1.18109e-11
-2.15984e-11
7.45127e-12
1.10378e-10
4.42952e-13
1.31354e-10
-2.66291e-11
6.68996e-12
-1.19307e-10
1.08009e-11
-8.49982e-11
1.19307e-11
-2.27282e-11
7.78027e-12
1.14528e-10
7.41706e-13
1.38393e-10
-2.58874e-11
8.82936e-12
-1.28136e-10
1.33185e-11
-8.94874e-11
1.2177e-11
-2.15866e-11
7.06343e-12
1.19642e-10
3.92594e-13
1.45064e-10
-2.54948e-11
1.17959e-11
-1.39932e-10
1.6623e-11
-9.43145e-11
1.31339e-11
-1.80974e-11
5.52594e-12
1.27249e-10
-6.57291e-13
1.51247e-10
-2.61521e-11
1.45074e-11
-1.5444e-10
1.8711e-11
-9.85181e-11
1.27656e-11
-1.2152e-11
1.66187e-12
1.38353e-10
-2.986e-12
1.55895e-10
-2.91381e-11
1.45679e-11
-1.69008e-10
1.43707e-11
-9.83208e-11
8.90412e-12
-6.68542e-12
-6.67736e-12
1.53935e-10
-8.44818e-12
1.57666e-10
-3.75863e-11
7.94349e-12
-1.76951e-10
-5.27236e-12
-8.5105e-11
-2.34877e-12
-9.609e-12
-1.96202e-11
1.71206e-10
-1.67952e-11
1.54841e-10
-5.43816e-11
-2.72244e-12
-1.74229e-10
-3.71856e-11
-5.06418e-11
-3.41509e-11
-1.26437e-11
-4.77783e-11
1.84834e-10
-3.54341e-11
1.42496e-10
-8.98156e-11
-8.18108e-12
-1.66048e-10
-5.60357e-11
-2.78722e-12
-7.48721e-11
6.19274e-12
-8.15752e-11
1.91537e-10
-5.99468e-11
1.20868e-10
-1.49762e-10
-2.40158e-11
-1.42032e-10
-6.63116e-11
3.95086e-11
-7.50241e-11
1.49052e-11
-6.09569e-11
1.7747e-10
-4.45308e-11
1.04442e-10
-1.94293e-10
-2.233e-11
-1.19702e-10
-6.40132e-11
8.11918e-11
-5.80638e-11
8.95583e-12
-2.55298e-11
1.44936e-10
-1.24306e-11
9.13426e-11
-2.06724e-10
2.46328e-11
-1.44335e-10
-1.59441e-11
1.21769e-10
-5.53472e-11
4.83589e-11
-5.88466e-11
1.48435e-10
-3.47847e-11
6.72808e-11
-2.41509e-10
3.81098e-11
-1.82444e-10
6.11778e-11
9.87007e-11
1.65526e-11
9.29841e-11
-3.53201e-11
2.00308e-10
-3.47403e-11
6.6701e-11
-2.76249e-10
-6.7202e-12
-1.75724e-10
1.82088e-11
7.37717e-11
2.57722e-11
8.54208e-11
9.82957e-12
2.1625e-10
-5.14154e-12
8.16722e-11
-2.8139e-10
-3.27821e-11
-1.42942e-10
-8.13627e-11
1.22352e-10
-6.36123e-11
6.76704e-11
-3.00893e-11
1.82727e-10
-1.48605e-11
6.64434e-11
-2.96251e-10
-4.53978e-11
-9.75444e-11
-1.02851e-10
1.79806e-10
-1.10645e-10
7.54645e-11
-6.39903e-11
1.36072e-10
-2.42508e-11
2.6704e-11
-3.20502e-10
-5.40289e-11
-4.35155e-11
-8.59587e-11
2.11735e-10
-1.19365e-10
1.0887e-10
-6.60669e-11
8.27747e-11
-1.48314e-11
-2.45316e-11
-3.35333e-10
-4.49245e-11
1.409e-12
-4.4903e-11
2.11714e-10
-9.86843e-11
1.62652e-10
-6.82479e-11
5.23383e-11
-9.25559e-12
-8.35239e-11
-3.44589e-10
6.52428e-12
-5.11526e-12
6.53901e-11
1.52848e-10
-2.27908e-11
2.50833e-10
-9.45808e-11
1.24128e-10
-3.60582e-11
-1.42046e-10
-3.80647e-10
6.54054e-11
-7.05206e-11
1.36212e-10
8.20411e-11
3.52167e-11
3.51828e-10
-8.28248e-11
2.4217e-10
-3.6751e-11
-1.8812e-10
-4.17398e-10
3.07487e-11
-1.01269e-10
3.65234e-11
7.62664e-11
6.53066e-12
3.81821e-10
-2.13255e-12
2.50833e-10
6.68626e-12
-1.96939e-10
-4.10712e-10
-2.82589e-11
-7.30103e-11
-5.19951e-11
1.00003e-10
-2.81264e-11
3.57952e-10
3.75804e-11
1.85126e-10
4.00308e-11
-1.99389e-10
-3.70681e-10
-1.57173e-11
-5.72931e-11
-1.54555e-11
9.97408e-11
2.30705e-11
3.19426e-10
6.24616e-11
1.45735e-10
4.55658e-11
-1.82494e-10
-3.25115e-10
2.23903e-11
-7.96834e-11
4.90625e-11
7.30686e-11
7.62835e-11
2.92205e-10
7.76013e-11
1.44417e-10
4.64712e-11
-1.51364e-10
-2.78644e-10
5.92869e-11
-1.3897e-10
1.17283e-10
1.50729e-11
1.38503e-10
2.70985e-10
1.15113e-10
1.67807e-10
6.12631e-11
-9.75134e-11
-2.17381e-10
6.43596e-11
-2.0333e-10
1.60681e-10
-8.12487e-11
1.74105e-10
2.57562e-10
1.44261e-10
1.97651e-10
6.9605e-11
-2.28577e-11
-1.47776e-10
5.43989e-11
-2.57729e-10
1.64236e-10
-1.91086e-10
1.97792e-10
2.24007e-10
1.6678e-10
2.28662e-10
7.23269e-11
7.15958e-11
-7.54489e-11
4.14088e-11
-2.99138e-10
1.07854e-10
-2.57531e-10
1.94281e-10
1.37579e-10
1.60444e-10
2.625e-10
7.2019e-11
1.6002e-10
-3.4299e-12
5.27854e-11
-3.51923e-10
6.44024e-11
-2.69148e-10
1.05557e-10
9.64246e-11
6.37379e-11
3.04319e-10
1.82072e-11
2.05551e-10
1.47773e-11
3.4559e-11
-3.86482e-10
4.56677e-11
-2.80257e-10
2.50137e-11
1.17079e-10
-1.75313e-11
3.46864e-10
-2.43059e-11
2.12326e-10
-9.52857e-12
8.40302e-12
-3.94885e-10
2.48515e-11
-2.96705e-10
8.14101e-12
1.33789e-10
-1.56899e-11
3.70695e-10
-4.00737e-12
2.00643e-10
-1.35359e-11
-1.09762e-12
-3.93787e-10
-6.90925e-12
-2.90894e-10
-7.87988e-13
1.27668e-10
-6.35397e-12
3.76261e-10
4.21132e-12
1.90078e-10
-9.32462e-12
-1.02547e-11
-3.83533e-10
-1.3826e-11
-2.87323e-10
2.324e-11
9.0602e-11
2.53702e-11
3.7413e-10
1.565e-11
1.99798e-10
6.32537e-12
-1.61729e-11
-3.6736e-10
-1.90609e-11
-2.84435e-10
3.49375e-11
3.66036e-11
3.80917e-11
3.70976e-10
1.50139e-11
2.22876e-10
2.13392e-11
-2.3946e-11
-3.43414e-10
-3.43964e-11
-2.73984e-10
3.06693e-11
-2.84621e-11
3.8165e-11
3.63481e-10
9.33272e-12
2.51708e-10
3.06719e-11
-7.01129e-12
-3.36402e-10
-2.36846e-11
-2.57311e-10
6.28632e-12
-5.8433e-11
9.4596e-13
3.68821e-10
-2.53615e-11
2.78016e-10
5.31041e-12
2.38946e-11
-3.60297e-10
4.13624e-12
-2.37552e-10
-3.57961e-11
-1.85006e-11
-5.68537e-11
3.89879e-10
-4.89307e-11
2.70093e-10
-4.36203e-11
1.24269e-11
-3.72724e-10
2.16089e-11
-2.46734e-10
6.95042e-11
-6.6396e-11
2.30406e-11
4.36342e-10
1.23835e-11
2.8075e-10
-3.12368e-11
-3.19483e-11
-3.40776e-10
5.05883e-11
-3.29271e-10
1.78444e-10
-1.94252e-10
1.88898e-10
4.25888e-10
9.34093e-11
3.76238e-10
6.21725e-11
2.62209e-11
-3.66996e-10
5.85217e-11
-3.61572e-10
1.559e-11
-1.5132e-10
6.41241e-11
3.77354e-10
1.10953e-11
4.29267e-10
7.32679e-11
6.5138e-11
-4.32134e-10
7.26323e-11
-3.69066e-10
-2.42468e-11
-5.44407e-11
-3.69801e-11
3.90088e-10
-4.34673e-11
4.35754e-10
2.98006e-11
-3.59794e-11
-3.96155e-10
-1.1374e-11
-3.93672e-10
3.80056e-11
-1.0382e-10
3.98823e-11
3.88211e-10
2.76511e-11
4.47985e-10
5.74517e-11
-4.52893e-11
-3.50866e-10
-7.04926e-11
-3.68468e-10
-4.64453e-11
-1.27868e-10
2.62383e-12
3.39142e-10
1.38722e-11
4.36737e-10
7.1324e-11
-9.67347e-12
-3.41192e-10
-2.41024e-11
-3.54039e-10
-2.5042e-11
-1.26928e-10
1.08364e-11
3.03263e-10
1.82515e-11
4.29322e-10
8.95755e-11
-6.92127e-12
-3.34271e-10
-1.36478e-11
-3.47313e-10
-1.86113e-11
-1.21965e-10
3.86684e-12
2.80785e-10
1.43155e-11
4.18873e-10
1.03891e-10
-1.36466e-11
-3.20624e-10
-2.5033e-11
-3.35926e-10
-3.85301e-11
-1.08467e-10
-2.33194e-11
2.65575e-10
-9.57399e-12
4.05128e-10
9.4317e-11
-1.89403e-11
-3.01684e-10
-2.96068e-11
-3.2526e-10
-4.48123e-11
-9.3262e-11
-3.39258e-11
2.54688e-10
-2.27555e-11
3.93957e-10
7.15615e-11
-1.93541e-11
-2.8233e-10
-2.96423e-11
-3.14971e-10
-4.10474e-11
-8.18569e-11
-3.02805e-11
2.43921e-10
-2.0928e-11
3.84605e-10
5.06335e-11
-1.47775e-11
-2.67552e-10
-2.44386e-11
-3.0531e-10
-3.149e-11
-7.48055e-11
-2.02245e-11
2.32656e-10
-1.27924e-11
3.77173e-10
3.78411e-11
-1.00865e-11
-2.57466e-10
-2.02946e-11
-2.95102e-10
-2.42023e-11
-7.08979e-11
-1.17718e-11
2.20225e-10
-5.73934e-12
3.7114e-10
3.21018e-11
-6.15756e-12
-2.51308e-10
-1.60862e-11
-2.85174e-10
-1.83691e-11
-6.8615e-11
-4.57595e-12
2.06432e-10
-1.44036e-12
3.68005e-10
3.06614e-11
1.41145e-13
-2.51449e-10
-1.1071e-11
-2.73961e-10
-1.96318e-11
-6.00542e-11
-8.96693e-12
1.95767e-10
-6.15773e-12
3.65195e-10
2.45037e-11
5.02328e-12
-2.56473e-10
-7.37468e-12
-2.61563e-10
-2.44978e-11
-4.29311e-11
-2.27455e-11
1.94015e-10
-1.52106e-11
3.5766e-10
9.29314e-12
3.55861e-12
-2.60031e-10
-8.25155e-12
-2.49753e-10
-2.50862e-11
-2.60964e-11
-2.77351e-11
1.96664e-10
-1.72251e-11
3.4715e-10
-7.93194e-12
2.95819e-12
-2.62989e-10
-7.23187e-12
-2.39563e-10
-2.10269e-11
-1.23013e-11
-2.21944e-11
1.97831e-10
-1.31598e-11
3.38116e-10
-2.10917e-11
7.20192e-12
-2.70191e-10
9.42245e-13
-2.33303e-10
-1.18817e-11
5.2265e-13
-1.38652e-11
1.99815e-10
-8.94749e-12
3.33198e-10
-3.00392e-11
1.14837e-11
-2.81675e-10
1.20296e-11
-2.33849e-10
3.15246e-12
9.39982e-12
-3.67879e-12
2.06646e-10
-4.86978e-12
3.34389e-10
-3.4909e-11
1.30142e-11
-2.94689e-10
2.05713e-11
-2.41406e-10
1.88884e-11
1.10828e-11
7.35446e-12
2.1818e-10
-1.3665e-13
3.4188e-10
-3.50457e-11
1.18434e-11
-3.06533e-10
2.16543e-11
-2.51217e-10
2.41018e-11
8.63534e-12
1.18907e-11
2.30391e-10
2.34214e-12
3.51429e-10
-3.27035e-11
1.02765e-11
-3.16809e-10
1.38494e-11
-2.5479e-10
8.92071e-12
1.35641e-11
1.88171e-13
2.39124e-10
-2.67477e-12
3.54292e-10
-3.53783e-11
1.27225e-11
-3.29532e-10
5.25682e-12
-2.47325e-10
-1.76271e-11
3.6448e-11
-2.26177e-11
2.44114e-10
-1.38235e-11
3.45498e-10
-4.92017e-11
2.01248e-11
-3.49656e-10
8.89154e-12
-2.36091e-10
-2.4558e-11
6.98975e-11
-3.13904e-11
2.50947e-10
-1.99507e-11
3.34058e-10
-6.91524e-11
2.78736e-11
-3.7753e-10
2.81566e-11
-2.36374e-10
6.20843e-12
9.18456e-11
-1.16591e-11
2.68814e-10
-1.48003e-11
3.37199e-10
-8.39527e-11
2.71204e-11
-4.0465e-10
4.41022e-11
-2.53356e-10
4.7506e-11
8.84419e-11
2.01841e-11
2.96136e-10
-2.50552e-12
3.59889e-10
-8.64583e-11
1.76393e-11
-4.2229e-10
3.99342e-11
-2.75651e-10
6.16672e-11
6.6709e-11
3.95944e-11
3.18209e-10
1.01169e-11
3.89366e-10
-7.63414e-11
7.11679e-12
-4.29406e-10
1.77009e-11
-2.86235e-10
3.42605e-11
5.01493e-11
2.63262e-11
3.26143e-10
1.09887e-11
4.04704e-10
-6.53527e-11
8.34791e-12
-4.37754e-10
-2.18187e-12
-2.75705e-10
-1.39577e-11
6.19252e-11
-7.39153e-12
3.19577e-10
-1.76951e-12
3.99082e-10
-6.71222e-11
2.3003e-11
-4.60757e-10
-2.06345e-11
-2.32068e-10
-1.08048e-10
1.49338e-10
-7.0988e-11
2.82518e-10
-2.34706e-11
3.51564e-10
-9.05928e-11
1.20988e-10
-5.81745e-10
9.98325e-11
-2.10912e-10
-6.06e-11
3.09771e-10
-1.0853e-10
3.30448e-10
-8.28414e-11
3.25875e-10
-1.73434e-10
1.12038e-10
-6.93783e-10
1.6627e-10
-2.65144e-10
1.46976e-10
3.29065e-10
6.18903e-11
4.15533e-10
-2.24667e-11
4.10232e-10
-1.95901e-10
-8.67214e-11
-6.07062e-10
-4.3955e-11
-3.0791e-10
1.34731e-10
1.5038e-10
1.57673e-10
3.9259e-10
8.68631e-11
4.81043e-10
-1.09038e-10
-7.92836e-11
-5.27779e-10
-7.01978e-11
-3.16996e-10
9.22285e-12
7.09593e-11
5.29364e-11
3.48877e-10
4.89288e-11
4.8505e-10
-6.01089e-11
3.99979e-11
-5.67776e-10
4.74562e-11
-3.24455e-10
1.8521e-11
9.98945e-11
-5.47988e-11
4.22197e-10
-3.74227e-11
4.67674e-10
-9.75316e-11
3.29698e-11
-6.00746e-10
7.53065e-12
-2.99015e-10
-2.22086e-11
1.29634e-10
-5.33455e-11
4.53334e-10
-3.24993e-11
4.46828e-10
-1.30031e-10
2.08716e-12
-6.02833e-10
-1.6028e-11
-2.809e-10
-3.29071e-11
1.46513e-10
-3.19919e-11
4.52419e-10
-1.89662e-11
4.33802e-10
-1.48997e-10
-8.78797e-12
-5.94045e-10
-4.64529e-12
-2.85043e-10
1.495e-12
1.40373e-10
2.49281e-12
4.51421e-10
-2.96515e-12
4.3926e-10
-1.51962e-10
-7.081e-13
-5.93337e-10
8.10799e-12
-2.93859e-10
1.26063e-11
1.35874e-10
1.09954e-11
4.53032e-10
1.28949e-12
4.48966e-10
-1.50673e-10
3.54929e-12
-5.96886e-10
5.82766e-12
-2.96137e-10
3.12148e-12
1.3858e-10
1.2166e-13
4.56032e-10
-3.78929e-12
4.52877e-10
-1.54462e-10
2.44862e-12
-5.99335e-10
4.2463e-12
-2.97935e-10
4.42545e-12
1.38401e-10
-1.06276e-12
4.6152e-10
-4.12766e-12
4.55942e-10
-1.5859e-10
4.58955e-13
-5.99794e-10
3.88573e-12
-3.01362e-10
8.03543e-12
1.34252e-10
2.03099e-12
4.67524e-10
-2.13558e-12
4.60109e-10
-1.60725e-10
-1.19195e-12
-5.98602e-10
5.77641e-12
-3.0833e-10
1.50303e-11
1.24998e-10
8.58566e-12
4.73969e-10
1.83041e-12
4.66864e-10
-1.58895e-10
-3.57755e-12
-5.95024e-10
9.66818e-12
-3.21576e-10
2.78959e-11
1.0677e-10
2.06851e-11
4.8118e-10
9.55835e-12
4.77991e-10
-1.49336e-10
-6.1625e-12
-5.88862e-10
1.55709e-11
-3.43309e-10
4.53226e-11
7.70186e-11
3.55757e-11
4.90927e-10
1.9179e-11
4.94387e-10
-1.30158e-10
-1.05872e-11
-5.78275e-10
1.56722e-11
-3.69568e-10
5.4417e-11
3.82738e-11
4.1226e-11
5.04118e-10
2.50302e-11
5.10583e-10
-1.05127e-10
-1.29127e-11
-5.65362e-10
-4.82634e-13
-3.81998e-10
2.83918e-11
9.39943e-12
6.26083e-12
5.26249e-10
6.44104e-12
5.10403e-10
-9.86863e-11
6.82422e-12
-5.72186e-10
-1.99386e-11
-3.55236e-10
-2.98629e-11
1.93238e-11
-6.65792e-11
5.62965e-10
-3.80815e-11
4.81905e-10
-1.36768e-10
1.93538e-11
-5.9154e-10
-4.00138e-11
-2.95868e-10
-9.30877e-11
7.23978e-11
-1.12699e-10
5.82576e-10
-4.83665e-11
4.17573e-10
-1.85134e-10
2.3736e-11
-6.15276e-10
-4.53416e-12
-2.67598e-10
-4.53011e-11
1.13165e-10
-5.55894e-11
5.92864e-10
-7.88247e-12
3.69866e-10
-1.93017e-10
3.58374e-11
-6.51113e-10
9.04868e-11
-3.22247e-10
1.70336e-10
3.33157e-11
1.44584e-10
6.18616e-10
9.65926e-11
4.17858e-10
-9.64241e-11
-4.59497e-12
-6.46518e-10
2.4148e-11
-3.5099e-10
1.5763e-10
-1.00166e-10
1.29074e-10
6.47172e-10
7.13687e-11
4.75563e-10
-2.50554e-11
2.48138e-11
-6.71332e-10
3.21033e-11
-3.58279e-10
-4.92446e-11
-1.8818e-11
-2.16957e-10
8.14885e-10
-2.42952e-10
5.01558e-10
-2.68007e-10
-5.24437e-11
-6.18888e-10
-4.26301e-11
-3.68093e-10
-1.90921e-10
1.29473e-10
-1.69596e-10
7.9356e-10
-2.54363e-10
5.86325e-10
-5.22371e-10
-9.68255e-11
-5.22063e-10
-2.5561e-10
-2.09308e-10
-3.86113e-10
2.59976e-10
-6.27585e-11
4.70206e-10
-5.94644e-11
5.83031e-10
-5.81835e-10
9.52576e-11
-6.1732e-10
-2.04958e-10
9.09084e-11
-4.72448e-10
5.27466e-10
-2.51403e-10
2.49161e-10
-1.18385e-10
4.50013e-10
-7.00221e-10
-1.00314e-12
-6.16317e-10
-3.07624e-10
3.97529e-10
-4.16009e-10
6.35851e-10
-3.345e-10
1.67653e-10
-1.50896e-10
2.66409e-10
-8.51117e-10
-1.38573e-10
-4.77744e-10
-3.84906e-10
6.43862e-10
-3.24797e-10
5.75742e-10
-3.50144e-10
1.93e-10
-1.86443e-10
1.02707e-10
-1.03756e-09
-1.44683e-10
-3.33061e-10
-2.88261e-10
7.8744e-10
-2.79953e-10
5.67435e-10
-2.67927e-10
1.80974e-10
-1.00298e-10
-6.49221e-11
-1.13786e-09
-2.65837e-10
-6.72237e-11
-4.07885e-10
9.29489e-10
-3.2698e-10
4.86529e-10
-1.44899e-11
-1.31515e-10
3.14391e-10
-3.93803e-10
-8.23466e-10
9.40616e-11
-1.61285e-10
3.75725e-12
1.01979e-09
-4.09478e-10
8.99765e-10
-5.82296e-10
4.13028e-11
-3.28163e-10
-6.47936e-10
-1.15163e-09
1.72493e-10
-3.33778e-10
6.07127e-10
5.85159e-10
-2.77832e-10
1.78473e-09
-8.04109e-10
5.6758e-10
-8.45015e-10
-6.0703e-10
-1.99664e-09
9.55967e-11
-4.29375e-10
8.73485e-10
-1.92729e-10
9.06945e-10
1.75127e-09
6.35164e-10
8.39361e-10
5.30249e-11
-2.48913e-11
-1.94362e-09
2.40203e-10
-6.69578e-10
7.0388e-10
-6.56406e-10
1.21479e-09
1.24036e-09
1.14108e-09
9.13073e-10
7.64485e-10
3.51699e-10
-1.17913e-09
2.069e-10
-8.76478e-10
1.94342e-10
-6.43848e-10
5.65791e-10
8.68909e-10
5.49037e-10
9.29827e-10
4.68335e-10
4.32401e-10
-7.10799e-10
-4.37967e-11
-8.32681e-10
-2.38256e-10
-4.49388e-10
-1.17868e-10
7.48521e-10
9.70131e-12
8.02258e-10
1.13411e-10
3.28692e-10
-5.97389e-10
-8.6524e-11
-7.46157e-10
-1.89164e-10
-3.46748e-10
-9.81739e-12
5.69174e-10
4.42196e-11
7.48221e-10
5.19629e-11
3.20949e-10
-5.45426e-10
-9.37696e-11
-6.52387e-10
-1.96234e-10
-2.44283e-10
3.5084e-11
3.37857e-10
4.19516e-11
7.41353e-10
4.37179e-11
3.19183e-10
-5.01708e-10
-8.47265e-11
-5.6766e-10
-2.55847e-10
-7.31631e-11
-1.40294e-10
2.22304e-10
-8.91706e-11
6.90229e-10
1.61977e-11
2.13815e-10
-4.8551e-10
-4.28531e-11
-5.24807e-10
-9.20757e-11
-2.39404e-11
-9.11877e-11
2.21417e-10
-5.08581e-11
6.499e-10
3.40507e-11
1.28906e-10
-4.5146e-10
-2.25112e-11
-5.02296e-10
1.38397e-11
-6.02911e-11
7.24512e-12
2.28011e-10
2.13854e-11
6.3576e-10
4.61289e-11
1.04162e-10
-4.05331e-10
-1.97467e-11
-4.82549e-10
-8.33568e-12
-7.1702e-11
3.65007e-12
2.16026e-10
1.96617e-11
6.19748e-10
4.05395e-11
8.32848e-11
-3.64791e-10
-4.19602e-12
-4.78353e-10
-4.40862e-12
-7.14893e-11
2.00812e-11
1.91536e-10
5.14396e-11
5.8839e-10
7.4469e-11
6.02556e-11
-2.90322e-10
8.77473e-11
-5.661e-10
1.55849e-10
-1.3959e-10
2.04142e-10
1.43243e-10
1.98146e-10
5.94386e-10
1.12891e-10
1.4551e-10
-1.77431e-10
2.00787e-10
-7.66887e-10
3.2617e-10
-2.64974e-10
2.81087e-10
1.88326e-10
1.77255e-10
6.98218e-10
3.08861e-11
2.91879e-10
-1.46545e-10
2.09243e-10
-9.7613e-10
3.30401e-10
-3.86131e-10
1.62756e-10
3.5597e-10
1.54123e-11
8.45562e-10
-5.78024e-11
3.65094e-10
-2.04347e-10
1.18419e-10
-1.09455e-09
2.37975e-10
-5.05687e-10
1.2055e-10
4.73396e-10
2.30623e-11
9.4305e-10
-8.23772e-12
3.96394e-10
-2.12585e-10
9.23271e-12
-1.10378e-09
8.54322e-11
-5.81886e-10
9.27807e-11
4.66047e-10
9.1973e-11
9.43858e-10
3.11335e-11
4.57234e-10
-1.81452e-10
-2.89132e-11
-1.07487e-09
-2.30979e-11
-5.87702e-10
3.90579e-11
4.03892e-10
7.00336e-11
9.12882e-10
2.63198e-11
5.00947e-10
-1.55132e-10
5.95113e-12
-1.08082e-09
-1.89081e-11
-5.62842e-10
3.23241e-11
3.52659e-10
4.01432e-11
9.05063e-10
1.70234e-11
5.24067e-10
-1.38108e-10
6.54834e-11
-1.1463e-09
5.93036e-11
-5.56662e-10
6.25043e-11
3.49459e-10
3.2031e-11
9.35537e-10
1.18717e-11
5.44227e-10
-1.26237e-10
1.19382e-10
-1.26568e-09
2.07022e-10
-6.44302e-10
1.42751e-10
4.1373e-10
5.07099e-11
1.02758e-09
-9.52224e-12
6.04459e-10
-1.35759e-10
9.9828e-11
-1.36551e-09
2.9348e-10
-8.37954e-10
1.86152e-10
5.21058e-10
5.23806e-11
1.16135e-09
-3.89042e-11
6.95744e-10
-1.74663e-10
1.83588e-12
-1.36735e-09
1.97378e-10
-1.0335e-09
2.11271e-10
5.07164e-10
9.41489e-11
1.27847e-09
7.21699e-12
7.82676e-10
-1.67446e-10
-1.22814e-10
-1.24453e-09
-7.61631e-11
-1.08015e-09
2.41772e-10
1.89229e-10
2.28469e-10
1.29177e-09
1.26702e-10
8.84443e-10
-4.07438e-11
-1.51702e-10
-1.09283e-09
-2.17127e-10
-1.01472e-09
2.05106e-10
-2.33004e-10
2.2941e-10
1.26747e-09
1.19672e-10
9.9418e-10
7.89283e-11
1.75388e-11
-1.11037e-09
-3.42806e-11
-9.62902e-10
-7.17628e-11
-1.95522e-10
-6.02195e-11
1.25593e-09
-1.10028e-10
1.04399e-09
-3.10999e-11
8.96117e-11
-1.19998e-09
-1.247e-11
-8.6082e-10
-1.86954e-10
-2.10376e-11
-1.08758e-10
1.17773e-09
-1.1966e-10
1.05489e-09
-1.5076e-10
-1.50367e-11
-1.18495e-09
-1.21827e-10
-7.5403e-10
-7.57012e-11
-6.71636e-11
9.46842e-12
1.09256e-09
1.85075e-11
1.04585e-09
-1.32252e-10
-3.7712e-11
-1.14723e-09
-1.00294e-10
-6.91448e-10
-1.20912e-10
-4.65454e-11
-5.34701e-11
1.02512e-09
7.12489e-12
9.85258e-10
-1.25127e-10
-1.52902e-11
-1.13194e-09
-9.6193e-11
-6.10545e-10
-1.60843e-10
1.81042e-11
-1.1716e-10
9.81438e-10
-2.75358e-11
8.95633e-10
-1.52663e-10
2.09369e-11
-1.15288e-09
-4.79119e-11
-5.41696e-10
-1.12221e-10
8.24138e-11
-1.2457e-10
9.93786e-10
-4.28308e-11
8.13895e-10
-1.95494e-10
2.01771e-11
-1.17306e-09
6.20744e-11
-5.83593e-10
9.77465e-11
4.67418e-11
4.25175e-11
1.04902e-09
4.92312e-11
8.07181e-10
-1.46263e-10
7.54257e-12
-1.1806e-09
1.36909e-10
-7.12959e-10
2.37344e-10
-5.36929e-11
1.88915e-10
1.09744e-09
1.3588e-10
8.60216e-10
-1.03823e-11
1.2765e-11
-1.19336e-09
1.16632e-10
-8.16826e-10
1.63126e-10
-1.00187e-10
1.31736e-10
1.12883e-09
1.01964e-10
8.89988e-10
9.15818e-11
9.5985e-12
-1.20296e-09
4.42734e-11
-8.51501e-10
4.04374e-11
-9.63505e-11
2.19691e-11
1.1473e-09
3.49636e-11
8.76993e-10
1.26545e-10
2.63921e-12
-1.2056e-09
3.30802e-12
-8.5217e-10
-2.17972e-11
-7.12453e-11
-2.54413e-11
1.15095e-09
2.56206e-12
8.4899e-10
1.29107e-10
2.45682e-12
-1.20806e-09
1.22158e-11
-8.61928e-10
-1.629e-11
-4.27394e-11
-1.72062e-11
1.15186e-09
-2.75791e-12
8.34542e-10
1.2635e-10
7.83256e-12
-1.21589e-09
3.00587e-11
-8.84155e-10
1.60585e-11
-2.87392e-11
1.29509e-11
1.15497e-09
7.40863e-12
8.40084e-10
1.33758e-10
1.99256e-11
-1.23582e-09
4.18452e-11
-9.06074e-10
3.61644e-11
-2.30582e-11
2.30626e-11
1.16807e-09
6.75535e-12
8.56392e-10
1.40514e-10
3.18002e-11
-1.26762e-09
4.92698e-11
-9.23544e-10
3.8948e-11
-1.27364e-11
2.33847e-11
1.18364e-09
3.7359e-12
8.7604e-10
1.44249e-10
3.68195e-11
-1.30444e-09
4.28557e-11
-9.2958e-10
1.98343e-11
1.02851e-11
1.80493e-12
1.20166e-09
-8.13411e-12
8.8598e-10
1.36115e-10
2.8516e-11
-1.33295e-09
2.44947e-11
-9.25558e-10
-3.05385e-11
6.53184e-11
-5.30937e-11
1.22422e-09
-3.67961e-11
8.69682e-10
9.93192e-11
-1.54774e-11
-1.31747e-09
-6.96653e-11
-8.7137e-10
-1.78104e-10
1.73758e-10
-1.96376e-10
1.24249e-09
-1.00361e-10
7.73667e-10
-1.04179e-12
-9.46394e-11
-1.22283e-09
-2.48668e-10
-7.17341e-10
-4.1256e-10
3.37649e-10
-4.34074e-10
1.26401e-09
-1.75784e-10
5.15377e-10
-1.76826e-10
-1.82527e-10
-1.04031e-09
-4.11146e-10
-4.88722e-10
-5.36234e-10
4.62738e-10
-4.7879e-10
1.20656e-09
-7.57112e-11
1.12298e-10
-2.52537e-10
-1.88499e-10
-8.51809e-10
-4.0663e-10
-2.70591e-10
-5.0206e-10
5.58168e-10
-4.48319e-10
1.15282e-09
-5.71916e-11
-2.7883e-10
-3.09729e-10
-1.74129e-10
-6.77681e-10
-2.86861e-10
-1.57859e-10
-4.29288e-10
7.00595e-10
-2.98052e-10
1.02159e-09
-1.21936e-10
-4.54946e-10
-4.31664e-10
-1.03398e-10
-5.74283e-10
-5.79706e-11
-2.03286e-10
-1.45416e-10
7.8804e-10
6.50328e-11
8.11137e-10
-5.94385e-11
-3.30474e-10
-4.91103e-10
1.42197e-12
-5.75704e-10
1.44874e-10
-3.46738e-10
1.34436e-10
7.98478e-10
2.25479e-10
7.20094e-10
2.48549e-11
-1.2985e-10
-4.66248e-10
-3.554e-11
-5.40164e-10
1.40213e-13
-3.82418e-10
5.61398e-11
7.42478e-10
1.19581e-10
6.56653e-10
4.57183e-11
-5.59877e-11
-4.2053e-10
-2.7349e-11
-5.12815e-10
6.94724e-11
-4.79239e-10
1.57891e-10
6.5406e-10
1.42735e-10
6.71809e-10
5.43299e-11
3.2417e-11
-3.662e-10
4.09187e-11
-5.53734e-10
1.68108e-10
-6.06428e-10
3.75639e-10
4.46529e-10
2.71522e-10
7.75926e-10
1.0803e-10
1.9591e-10
-2.5817e-10
1.24563e-10
-6.78297e-10
4.06812e-11
-5.22546e-10
4.94267e-10
-7.05757e-12
4.2064e-10
8.49554e-10
2.05985e-10
4.10564e-10
-5.21853e-11
5.16426e-10
-1.19472e-09
4.0107e-10
-4.0719e-10
6.79945e-10
-2.85932e-10
4.45743e-10
1.08376e-09
3.49402e-10
5.06905e-10
2.97216e-10
6.29482e-10
-1.8242e-09
8.43372e-10
-6.21081e-10
6.70985e-10
-1.13545e-10
5.48115e-10
1.20663e-09
4.62954e-10
5.92067e-10
7.6017e-10
2.87307e-10
-2.11151e-09
2.61828e-10
-5.95602e-10
-1.94933e-10
3.43216e-10
-1.70211e-11
1.02871e-09
-2.19683e-10
7.94729e-10
5.40487e-10
-3.89118e-10
-1.72239e-09
-8.24363e-10
-1.60356e-10
-1.32513e-09
8.43986e-10
-9.12208e-10
6.15789e-10
-9.97574e-10
8.80096e-10
-4.57087e-10
-6.56407e-10
-1.06599e-09
-9.20524e-10
1.03761e-10
-9.71044e-10
8.94506e-10
-8.43561e-10
4.88306e-10
-6.43698e-10
6.80233e-10
-1.10079e-09
-6.23103e-10
-4.42884e-10
-3.95537e-10
-1.23804e-10
-4.94626e-11
5.48432e-10
1.81045e-11
4.20739e-10
3.02808e-10
3.95529e-10
-7.97977e-10
-3.39506e-10
-1.03377e-10
-4.08627e-11
-4.22447e-10
2.22592e-10
2.84977e-10
2.9553e-10
3.47802e-10
8.22393e-10
-1.31333e-10
2.44159e-11
-4.2527e-10
3.21892e-10
-7.88506e-10
-5.92109e-11
-1.13309e-09
6.29557e-10
-6.0149e-10
-1.83794e-10
3.06479e-10
-1.0393e-09
3.30895e-10
3.29374e-11
2.88955e-10
2.844e-10
-3.10673e-10
1.8638e-10
7.27577e-10
-3.36964e-10
3.3955e-10
-8.01915e-10
-5.74351e-10
-4.7102e-10
6.69239e-10
-3.80283e-10
8.76179e-10
-5.17613e-10
1.04703e-09
5.56726e-10
7.58678e-10
6.27902e-10
3.1253e-11
1.53074e-10
-4.39767e-10
-2.91325e-10
-8.89585e-11
-1.25262e-09
4.43681e-10
-1.55152e-09
8.55626e-10
-8.06201e-10
-1.17417e-10
-1.3178e-11
-6.39949e-10
-4.52945e-10
-2.8309e-10
1.94132e-10
-5.36647e-10
6.97238e-10
-6.9651e-10
1.01549e-09
-7.37397e-10
-7.65296e-11
-4.00133e-10
-9.77213e-10
-8.53079e-10
-9.53673e-11
2.89499e-10
-1.56093e-10
7.57964e-10
-9.45468e-11
9.53943e-10
3.02631e-11
-2.01339e-10
5.85281e-11
-1.00548e-09
-7.94551e-10
-4.36896e-11
3.33189e-10
-9.3284e-11
8.07559e-10
9.49193e-12
8.51167e-10
2.71874e-10
-4.63722e-10
7.42444e-11
-8.07848e-10
-7.20306e-10
1.95391e-10
1.37798e-10
2.98422e-10
7.04527e-10
2.32571e-10
9.17018e-10
-1.54724e-10
-7.64272e-11
-4.44743e-10
-5.17828e-10
-1.16505e-09
4.80151e-11
8.97835e-11
-4.03595e-11
7.92902e-10
-2.23159e-10
1.09982e-09
-6.52262e-10
3.52676e-10
-6.78147e-10
-4.91942e-10
-1.8432e-09
-2.31787e-10
3.21571e-10
-6.59528e-10
1.22064e-09
-7.714e-10
1.21169e-09
-5.51097e-10
1.32373e-10
-2.0574e-10
-8.373e-10
-2.04894e-09
-1.67434e-10
4.89005e-10
-3.78399e-10
1.43161e-09
-5.3541e-10
1.3687e-09
-2.43213e-10
-1.59824e-10
6.21609e-11
-1.14267e-09
-1.98678e-09
4.98204e-11
4.39185e-10
1.81196e-10
1.30023e-09
-1.57087e-11
1.56561e-09
-3.18529e-11
-1.4368e-10
-8.186e-12
-1.16634e-09
-1.99496e-09
1.41913e-10
2.97272e-10
3.064e-10
1.13574e-09
1.51928e-10
1.72008e-09
1.15301e-10
-1.07053e-10
1.62995e-11
-1.06734e-09
-1.97866e-09
1.08467e-10
1.88805e-10
2.03941e-10
1.04027e-09
2.09843e-10
1.71418e-09
1.38964e-10
-3.61736e-11
7.71864e-11
-1.00556e-09
-1.90148e-09
3.53789e-11
1.53426e-10
5.72032e-11
1.01845e-09
9.03198e-11
1.68106e-09
5.44106e-11
-2.64355e-13
2.75813e-11
-9.78731e-10
-1.87389e-09
-7.84464e-12
1.61271e-10
-3.31261e-11
1.04373e-09
-4.98676e-11
1.6978e-09
-3.10562e-11
-1.90756e-11
-3.77239e-11
-9.72063e-10
-1.91162e-09
-1.84334e-11
1.79704e-10
-6.27081e-11
1.088e-09
-1.18142e-10
1.75323e-09
-8.31135e-11
-5.41041e-11
-7.24991e-11
-9.82678e-10
-1.98412e-09
-1.39871e-11
1.93691e-10
-6.8011e-11
1.14203e-09
-1.57914e-10
1.84314e-09
-1.18783e-10
-9.32353e-11
-1.02404e-10
-9.99057e-10
-2.08652e-09
3.39923e-12
1.90292e-10
-4.7013e-11
1.19244e-09
-1.55164e-10
1.95129e-09
-1.28119e-10
-1.20281e-10
-1.31128e-10
-9.96047e-10
-2.21765e-09
6.3906e-11
1.26386e-10
4.93511e-11
1.20699e-09
-8.72179e-11
2.08786e-09
-1.51883e-10
-5.56152e-11
-2.09239e-10
-9.38691e-10
-2.42689e-09
1.47401e-10
-2.10151e-11
1.91286e-10
1.16311e-09
2.90468e-11
2.2501e-09
-2.12495e-10
1.85926e-10
-3.20437e-10
-8.30749e-10
-2.74733e-09
1.45858e-10
-1.66873e-10
1.72145e-10
1.13682e-09
-4.45624e-12
2.4267e-09
-2.11741e-10
3.93211e-10
-2.88155e-10
-7.54335e-10
-3.03548e-09
2.10835e-11
-1.87957e-10
-6.07686e-11
1.21868e-09
-1.12055e-10
2.47798e-09
-5.0778e-11
3.31934e-10
-3.31641e-11
-7.71949e-10
-3.06864e-09
-4.43275e-11
-1.43629e-10
-1.48708e-10
1.32306e-09
1.97338e-11
2.30954e-09
1.84632e-10
1.67037e-10
1.70608e-10
-7.57925e-10
-2.89804e-09
4.44988e-13
-1.44074e-10
-4.56828e-11
1.36918e-09
2.37241e-10
2.02662e-09
3.43001e-10
6.12764e-11
2.26708e-10
-6.41632e-10
-2.67133e-09
7.94701e-11
-2.23544e-10
9.04092e-11
1.35825e-09
4.47045e-10
1.66998e-09
4.87561e-10
2.07602e-11
2.80148e-10
-4.3422e-10
-2.39118e-09
2.86738e-10
-5.10282e-10
4.32375e-10
1.21261e-09
8.67983e-10
1.23437e-09
6.81584e-10
2.07159e-10
3.53102e-10
-1.05738e-10
-2.03808e-09
5.72513e-10
-1.08279e-09
9.45467e-10
8.39655e-10
1.35597e-09
8.2387e-10
7.61036e-10
8.02095e-10
2.18196e-10
4.37102e-10
-1.81988e-09
5.22749e-10
-1.60554e-09
1.07049e-09
2.91912e-10
1.33909e-09
5.55268e-10
5.36796e-10
1.60439e-09
-1.67606e-10
1.1415e-09
-1.98749e-09
3.33042e-10
-1.93859e-09
8.57246e-10
-2.32292e-10
8.12342e-10
6.00173e-10
2.38138e-10
2.1786e-09
-4.50577e-10
1.83022e-09
-2.43807e-09
4.5065e-10
-2.38924e-09
8.16933e-10
-5.98575e-10
3.34174e-10
1.08293e-09
2.38019e-11
2.48897e-09
-5.00647e-10
2.35467e-09
-2.93871e-09
4.8436e-10
-2.8736e-09
7.35381e-10
-8.49596e-10
1.90562e-10
1.62775e-09
-3.13889e-10
2.99342e-09
-2.68285e-10
2.30906e-09
-3.207e-09
6.01472e-11
-2.93374e-09
2.11972e-10
-1.00142e-09
-1.38246e-10
1.97797e-09
-7.11651e-10
3.56683e-09
1.84823e-11
1.57893e-09
-3.18851e-09
2.00903e-10
-3.13465e-09
-2.03438e-11
-7.80174e-10
-1.35757e-09
3.3152e-09
-2.17631e-09