/*--------------------------------*- C++ -*----------------------------------*\
| =========                 |                                                 |
| \\      /  F ield         | OpenFOAM: The Open Source CFD Toolbox           |
|  \\    /   O peration     | Version:  2206                                  |
|   \\  /    A nd           | Website:  www.openfoam.com                      |
|    \\/     M anipulation  |                                                 |
\*---------------------------------------------------------------------------*/
FoamFile
{
    version     2.0;
    format      ascii;
    arch        "LSB;label=32;scalar=64";
    class       volVectorField;
    location    "130";
    object      U;
}
// * * * * * * * * * * * * * * * * * * * * * * * * * * * * * * * * * * * * * //

dimensions      [0 1 -1 0 0 0 0];

internalField   nonuniform List<vector> 
100000
(
(1.46016e-11 5.39177e-06 1.40725e-11)
(8.58226e-12 9.32898e-06 2.75369e-13)
(-1.43898e-12 1.7194e-05 2.20615e-14)
(-1.75831e-11 2.56264e-05 -5.78984e-14)
(-1.80463e-11 3.33706e-05 1.62808e-13)
(-9.99847e-12 3.4935e-05 6.67003e-14)
(-1.96495e-11 4.28219e-05 1.36834e-13)
(-1.99963e-11 5.13265e-05 1.29042e-13)
(-2.6146e-11 5.98234e-05 1.29303e-13)
(-2.95018e-11 6.7624e-05 6.88457e-14)
(-2.75124e-11 6.91434e-05 6.50867e-14)
(-3.19949e-11 7.70144e-05 1.1826e-13)
(-3.56242e-11 8.55219e-05 1.27844e-13)
(-4.07397e-11 9.40238e-05 1.19202e-13)
(-4.4193e-11 0.00010184 7.0228e-14)
(-4.27426e-11 0.000103351 6.33023e-14)
(-4.63699e-11 0.000111214 1.21776e-13)
(-5.08458e-11 0.000119722 1.21775e-13)
(-5.53748e-11 0.000128226 1.24806e-13)
(-5.88817e-11 0.00013605 6.64912e-14)
(-5.76349e-11 0.000137558 6.64619e-14)
(-6.08339e-11 0.000145416 1.19576e-13)
(-6.59328e-11 0.000153926 1.25468e-13)
(-6.95577e-11 0.000162473 1.25399e-13)
(-7.47043e-11 0.000170979 1.24576e-13)
(-7.78656e-11 0.000178808 6.82066e-14)
(-7.66464e-11 0.000180314 6.63743e-14)
(-8.00075e-11 0.00018817 1.22195e-13)
(-8.4703e-11 0.000196677 1.25082e-13)
(-8.89351e-11 0.000205183 1.2392e-13)
(-9.28064e-11 0.000213014 6.83686e-14)
(-9.10249e-11 0.00021452 6.60987e-14)
(-9.48267e-11 0.000222373 1.22655e-13)
(-9.917e-11 0.000230881 1.24542e-13)
(-1.03669e-10 0.000239386 1.24126e-13)
(-1.07325e-10 0.000247219 6.77767e-14)
(-1.0571e-10 0.000248725 6.66054e-14)
(-1.09385e-10 0.000256576 1.22265e-13)
(-1.1382e-10 0.000265084 1.24848e-13)
(-1.18245e-10 0.00027359 1.23576e-13)
(-1.2195e-10 0.000281424 6.80071e-14)
(-1.20303e-10 0.000282929 6.63248e-14)
(-1.23998e-10 0.00029078 1.22601e-13)
(-1.2842e-10 0.000299288 1.24465e-13)
(-1.32848e-10 0.000307793 1.23735e-13)
(-1.36552e-10 0.000315629 6.76206e-14)
(-1.34901e-10 0.000317134 6.66401e-14)
(-1.38605e-10 0.000324984 1.2235e-13)
(-1.43014e-10 0.000333491 1.24649e-13)
(-1.47454e-10 0.000341997 1.23393e-13)
(-1.51141e-10 0.000349833 6.77524e-14)
(-1.49511e-10 0.000351338 6.64711e-14)
(-1.53193e-10 0.000359187 1.22543e-13)
(-1.57625e-10 0.000367695 1.2442e-13)
(-1.62037e-10 0.000376201 1.23467e-13)
(-1.65753e-10 0.000384038 6.75248e-14)
(-1.6409e-10 0.000385543 6.66432e-14)
(-1.67813e-10 0.000393391 1.22412e-13)
(-1.72196e-10 0.000401899 1.24496e-13)
(-1.76665e-10 0.000410405 1.23286e-13)
(-1.80309e-10 0.000418242 6.75506e-14)
(-1.78735e-10 0.000419747 6.65982e-14)
(-1.8235e-10 0.000427595 1.22458e-13)
(-1.86866e-10 0.000436102 1.24437e-13)
(-1.91169e-10 0.000444609 1.23213e-13)
(-1.95017e-10 0.000452446 6.75373e-14)
(-1.93192e-10 0.000453951 6.65395e-14)
(-1.97119e-10 0.000461799 1.22579e-13)
(-2.01248e-10 0.000470306 1.24229e-13)
(-2.06027e-10 0.000478813 1.23397e-13)
(-2.09288e-10 0.000486651 6.71717e-14)
(-2.08186e-10 0.000488155 6.69721e-14)
(-2.11225e-10 0.000496003 1.22067e-13)
(-2.16446e-10 0.000504512 1.25373e-13)
(-2.19948e-10 0.000513059 1.2587e-13)
(-2.25174e-10 0.000521567 1.23052e-13)
(-2.28226e-10 0.000529406 6.80227e-14)
(-2.271e-10 0.000530911 6.65283e-14)
(-2.30372e-10 0.000538758 1.2313e-13)
(-2.35136e-10 0.000547265 1.24484e-13)
(-2.39288e-10 0.000555771 1.23665e-13)
(-2.43208e-10 0.00056361 6.73941e-14)
(-2.41381e-10 0.000565115 6.70066e-14)
(-2.45221e-10 0.000572962 1.22705e-13)
(-2.49526e-10 0.000581469 1.24773e-13)
(-2.54046e-10 0.000589975 1.23326e-13)
(-2.5767e-10 0.000597814 6.75851e-14)
(-2.56082e-10 0.000599319 6.68087e-14)
(-2.59731e-10 0.000607165 1.22848e-13)
(-2.64188e-10 0.000615673 1.24593e-13)
(-2.68586e-10 0.000624179 1.23391e-13)
(-2.72306e-10 0.000632018 6.7445e-14)
(-2.70642e-10 0.000633523 6.68951e-14)
(-2.74353e-10 0.000641369 1.22751e-13)
(-2.7876e-10 0.000649877 1.24624e-13)
(-2.83198e-10 0.000658383 1.23284e-13)
(-2.86884e-10 0.000666222 6.74622e-14)
(-2.85251e-10 0.000667727 6.68489e-14)
(-2.88935e-10 0.000675573 1.22771e-13)
(-2.93367e-10 0.00068408 1.2456e-13)
(-2.97779e-10 0.000692587 1.23267e-13)
(-3.01492e-10 0.000700427 6.74107e-14)
(-2.99829e-10 0.000701931 6.68617e-14)
(-3.03549e-10 0.000709777 1.22747e-13)
(-3.07938e-10 0.000718284 1.2453e-13)
(-3.12402e-10 0.000726791 1.23237e-13)
(-3.1605e-10 0.000734631 6.73616e-14)
(-3.14469e-10 0.000736135 6.68949e-14)
(-3.18088e-10 0.000743981 1.22681e-13)
(-3.22603e-10 0.000752488 1.24575e-13)
(-3.26908e-10 0.000760995 1.23106e-13)
(-3.30753e-10 0.000768835 6.74597e-14)
(-3.28928e-10 0.000770339 6.67349e-14)
(-3.32851e-10 0.000778185 1.22868e-13)
(-3.36988e-10 0.000786692 1.24298e-13)
(-3.41762e-10 0.000795199 1.23388e-13)
(-3.45027e-10 0.000803039 6.70456e-14)
(-3.43917e-10 0.000804544 6.7219e-14)
(-3.46961e-10 0.000812389 1.22278e-13)
(-3.5218e-10 0.000820898 1.25511e-13)
(-3.55684e-10 0.000829445 1.25793e-13)
(-3.60907e-10 0.000837954 1.22909e-13)
(-3.63959e-10 0.000845794 6.78412e-14)
(-3.62835e-10 0.000847299 6.66709e-14)
(-3.66107e-10 0.000855144 1.23194e-13)
(-3.70872e-10 0.000863651 1.24476e-13)
(-3.75021e-10 0.000872158 1.23505e-13)
(-3.78942e-10 0.000879998 6.72802e-14)
(-3.77115e-10 0.000881503 6.71024e-14)
(-3.80955e-10 0.000889348 1.22815e-13)
(-3.85262e-10 0.000897855 1.24743e-13)
(-3.8978e-10 0.000906362 1.23227e-13)
(-3.93403e-10 0.000914202 6.74563e-14)
(-3.91815e-10 0.000915707 6.69328e-14)
(-3.95465e-10 0.000923552 1.2293e-13)
(-3.99923e-10 0.000932059 1.24606e-13)
(-4.0432e-10 0.000940566 1.23287e-13)
(-4.08039e-10 0.000948406 6.73591e-14)
(-4.06376e-10 0.000949911 6.69905e-14)
(-4.10086e-10 0.000957756 1.2286e-13)
(-4.14497e-10 0.000966263 1.24627e-13)
(-4.1893e-10 0.00097477 1.23218e-13)
(-4.22621e-10 0.00098261 6.73726e-14)
(-4.2098e-10 0.000984115 6.6956e-14)
(-4.24673e-10 0.00099196 1.2287e-13)
(-4.29095e-10 0.00100047 1.24581e-13)
(-4.33521e-10 0.00100897 1.23213e-13)
(-4.37215e-10 0.00101681 6.73326e-14)
(-4.35575e-10 0.00101832 6.69724e-14)
(-4.39265e-10 0.00102616 1.22833e-13)
(-4.43694e-10 0.00103467 1.24583e-13)
(-4.48109e-10 0.00104318 1.23161e-13)
(-4.51818e-10 0.00105102 6.7343e-14)
(-4.50158e-10 0.00105252 6.69364e-14)
(-4.53876e-10 0.00106037 1.22855e-13)
(-4.58268e-10 0.00106887 1.24521e-13)
(-4.62729e-10 0.00107738 1.23187e-13)
(-4.66378e-10 0.00108522 6.7267e-14)
(-4.64795e-10 0.00108673 6.70041e-14)
(-4.68416e-10 0.00109457 1.22754e-13)
(-4.7293e-10 0.00110308 1.24608e-13)
(-4.77237e-10 0.00111159 1.23035e-13)
(-4.8108e-10 0.00111943 6.74085e-14)
(-4.79256e-10 0.00112093 6.6809e-14)
(-4.83178e-10 0.00112878 1.22975e-13)
(-4.87317e-10 0.00113728 1.24306e-13)
(-4.92089e-10 0.00114579 1.2336e-13)
(-4.95355e-10 0.00115363 6.69723e-14)
(-4.94243e-10 0.00115514 6.73216e-14)
(-4.97289e-10 0.00116298 1.22354e-13)
(-5.02508e-10 0.00117149 1.25555e-13)
(-5.06013e-10 0.00118004 1.25732e-13)
(-5.11234e-10 0.00118854 1.22818e-13)
(-5.14286e-10 0.00119639 6.7738e-14)
(-5.13163e-10 0.00119789 6.67295e-14)
(-5.16435e-10 0.00120573 1.23203e-13)
(-5.212e-10 0.00121424 1.24452e-13)
(-5.25348e-10 0.00122275 1.23401e-13)
(-5.29269e-10 0.00123059 6.72121e-14)
(-5.27443e-10 0.00123209 6.71369e-14)
(-5.31283e-10 0.00123994 1.22852e-13)
(-5.3559e-10 0.00124845 1.24705e-13)
(-5.40107e-10 0.00125695 1.23158e-13)
(-5.4373e-10 0.00126479 6.73746e-14)
(-5.42143e-10 0.0012663 6.69893e-14)
(-5.45793e-10 0.00127414 1.22951e-13)
(-5.50251e-10 0.00128265 1.24597e-13)
(-5.54647e-10 0.00129116 1.23208e-13)
(-5.58367e-10 0.001299 6.73059e-14)
(-5.56704e-10 0.0013005 6.70261e-14)
(-5.60414e-10 0.00130835 1.22906e-13)
(-5.64824e-10 0.00131685 1.24602e-13)
(-5.69259e-10 0.00132536 1.23171e-13)
(-5.72946e-10 0.0013332 6.73025e-14)
(-5.71311e-10 0.00133471 6.70168e-14)
(-5.74997e-10 0.00134255 1.22892e-13)
(-5.79429e-10 0.00135106 1.24592e-13)
(-5.83841e-10 0.00135956 1.23142e-13)
(-5.87553e-10 0.00136741 6.73055e-14)
(-5.85891e-10 0.00136891 6.6991e-14)
(-5.8961e-10 0.00137675 1.22906e-13)
(-5.94001e-10 0.00138526 1.24542e-13)
(-5.98463e-10 0.00139377 1.23166e-13)
(-6.02112e-10 0.00140161 6.72402e-14)
(-6.00529e-10 0.00140311 6.70526e-14)
(-6.04149e-10 0.00141096 1.22813e-13)
(-6.08664e-10 0.00141947 1.24628e-13)
(-6.12971e-10 0.00142797 1.23025e-13)
(-6.16814e-10 0.00143581 6.73815e-14)
(-6.14989e-10 0.00143732 6.68612e-14)
(-6.18911e-10 0.00144516 1.23031e-13)
(-6.23051e-10 0.00145367 1.24333e-13)
(-6.27822e-10 0.00146218 1.23351e-13)
(-6.3109e-10 0.00147002 6.69518e-14)
(-6.29976e-10 0.00147152 6.73709e-14)
(-6.33022e-10 0.00147937 1.22414e-13)
(-6.38242e-10 0.00148788 1.25582e-13)
(-6.41747e-10 0.00149642 1.25723e-13)
(-6.46968e-10 0.00150493 1.22778e-13)
(-6.50019e-10 0.00151277 6.77009e-14)
(-6.48897e-10 0.00151428 6.67583e-14)
(-6.52168e-10 0.00152212 1.23228e-13)
(-6.56935e-10 0.00153063 1.24445e-13)
(-6.61082e-10 0.00153914 1.23368e-13)
(-6.65002e-10 0.00154698 6.71769e-14)
(-6.63177e-10 0.00154848 6.71685e-14)
(-6.67017e-10 0.00155633 1.22877e-13)
(-6.71324e-10 0.00156483 1.24705e-13)
(-6.75841e-10 0.00157334 1.23128e-13)
(-6.79464e-10 0.00158118 6.73457e-14)
(-6.77877e-10 0.00158269 6.70185e-14)
(-6.81527e-10 0.00159053 1.22981e-13)
(-6.85985e-10 0.00159904 1.24597e-13)
(-6.90382e-10 0.00160754 1.23186e-13)
(-6.941e-10 0.00161538 6.72766e-14)
(-6.92438e-10 0.00161689 6.70599e-14)
(-6.96147e-10 0.00162473 1.22933e-13)
(-7.00559e-10 0.00163324 1.24612e-13)
(-7.04991e-10 0.00164175 1.23147e-13)
(-7.08682e-10 0.00164959 6.7284e-14)
(-7.07042e-10 0.00165109 6.70414e-14)
(-7.10735e-10 0.00165894 1.22933e-13)
(-7.15158e-10 0.00166744 1.24589e-13)
(-7.19583e-10 0.00167595 1.23139e-13)
(-7.23277e-10 0.00168379 6.72676e-14)
(-7.21637e-10 0.0016853 6.70437e-14)
(-7.25327e-10 0.00169314 1.22915e-13)
(-7.29757e-10 0.00170165 1.24585e-13)
(-7.3417e-10 0.00171016 1.23114e-13)
(-7.3788e-10 0.001718 6.72725e-14)
(-7.36219e-10 0.0017195 6.70213e-14)
(-7.39938e-10 0.00172735 1.22927e-13)
(-7.4433e-10 0.00173585 1.24544e-13)
(-7.48791e-10 0.00174436 1.23137e-13)
(-7.5244e-10 0.0017522 6.72165e-14)
(-7.50857e-10 0.00175371 6.70765e-14)
(-7.54478e-10 0.00176155 1.22842e-13)
(-7.58993e-10 0.00177006 1.24626e-13)
(-7.633e-10 0.00177856 1.23006e-13)
(-7.67142e-10 0.0017864 6.73531e-14)
(-7.65317e-10 0.00178791 6.68928e-14)
(-7.69239e-10 0.00179575 1.23055e-13)
(-7.7338e-10 0.00180426 1.24341e-13)
(-7.78151e-10 0.00181277 1.23329e-13)
(-7.81418e-10 0.00182061 6.69328e-14)
(-7.80304e-10 0.00182211 6.73961e-14)
(-7.83351e-10 0.00182996 1.22446e-13)
(-7.8857e-10 0.00183847 1.25586e-13)
(-7.92075e-10 0.00184701 1.25707e-13)
(-7.97297e-10 0.00185552 1.22735e-13)
(-8.00347e-10 0.00186336 6.76699e-14)
(-7.99226e-10 0.00186487 6.67696e-14)
(-8.02497e-10 0.00187271 1.23236e-13)
(-8.07264e-10 0.00188122 1.24426e-13)
(-8.1141e-10 0.00188973 1.23335e-13)
(-8.15331e-10 0.00189757 6.71425e-14)
(-8.13505e-10 0.00189907 6.71868e-14)
(-8.17346e-10 0.00190692 1.22881e-13)
(-8.21652e-10 0.00191542 1.24694e-13)
(-8.26169e-10 0.00192393 1.23092e-13)
(-8.29792e-10 0.00193177 6.73201e-14)
(-8.28206e-10 0.00193328 6.70314e-14)
(-8.31855e-10 0.00194112 1.22993e-13)
(-8.36314e-10 0.00194963 1.24584e-13)
(-8.4071e-10 0.00195813 1.23159e-13)
(-8.44429e-10 0.00196598 6.72483e-14)
(-8.42766e-10 0.00196748 6.70778e-14)
(-8.46477e-10 0.00197532 1.22943e-13)
(-8.50887e-10 0.00198383 1.24604e-13)
(-8.55322e-10 0.00199234 1.23122e-13)
(-8.59008e-10 0.00200018 6.72584e-14)
(-8.57374e-10 0.00200168 6.70612e-14)
(-8.61059e-10 0.00200953 1.22941e-13)
(-8.65493e-10 0.00201804 1.24591e-13)
(-8.69904e-10 0.00202654 1.23107e-13)
(-8.73615e-10 0.00203438 6.72584e-14)
(-8.71953e-10 0.00203589 6.7044e-14)
(-8.75672e-10 0.00204373 1.22951e-13)
(-8.80064e-10 0.00205224 1.24553e-13)
(-8.84526e-10 0.00206075 1.23131e-13)
(-8.88175e-10 0.00206859 6.72051e-14)
(-8.86591e-10 0.00207009 6.70989e-14)
(-8.90212e-10 0.00207794 1.22868e-13)
(-8.94727e-10 0.00208644 1.24637e-13)
(-8.99034e-10 0.00209495 1.23002e-13)
(-9.02876e-10 0.00210279 6.73435e-14)
(-9.01051e-10 0.0021043 6.69149e-14)
(-9.04973e-10 0.00211214 1.23082e-13)
(-9.09114e-10 0.00212065 1.24353e-13)
(-9.13885e-10 0.00212915 1.23328e-13)
(-9.17153e-10 0.002137 6.69237e-14)
(-9.16038e-10 0.0021385 6.74194e-14)
(-9.19085e-10 0.00214634 1.22472e-13)
(-9.24305e-10 0.00215485 1.256e-13)
(-9.2781e-10 0.0021634 1.25703e-13)
(-9.33031e-10 0.00217191 1.22719e-13)
(-9.36081e-10 0.00217975 6.76532e-14)
(-9.34961e-10 0.00218126 6.67842e-14)
(-9.38231e-10 0.0021891 1.23248e-13)
(-9.42998e-10 0.00219761 1.24425e-13)
(-9.47144e-10 0.00220611 1.23321e-13)
(-9.51065e-10 0.00221396 6.71282e-14)
(-9.4924e-10 0.00221546 6.72011e-14)
(-9.5308e-10 0.0022233 1.22895e-13)
(-9.57387e-10 0.00223181 1.24695e-13)
(-9.61904e-10 0.00224032 1.23081e-13)
(-9.65527e-10 0.00224816 6.73069e-14)
(-9.6394e-10 0.00224966 6.70462e-14)
(-9.6759e-10 0.00225751 1.23008e-13)
(-9.72049e-10 0.00226601 1.24586e-13)
(-9.76444e-10 0.00227452 1.2315e-13)
(-9.80163e-10 0.00228236 6.72354e-14)
(-9.78501e-10 0.00228387 6.70945e-14)
(-9.8221e-10 0.00229171 1.22957e-13)
(-9.86623e-10 0.00230022 1.24611e-13)
(-9.91054e-10 0.00230873 1.23111e-13)
(-9.94745e-10 0.00231657 6.72521e-14)
(-9.93105e-10 0.00231807 6.70712e-14)
(-9.96798e-10 0.00232592 1.22965e-13)
(-1.00122e-09 0.00233442 1.24587e-13)
(-1.00565e-09 0.00234293 1.23113e-13)
(-1.00934e-09 0.00235077 6.72333e-14)
(-1.0077e-09 0.00235228 6.70799e-14)
(-1.01139e-09 0.00236012 1.22944e-13)
(-1.01582e-09 0.00236863 1.24592e-13)
(-1.02023e-09 0.00237713 1.23087e-13)
(-1.02394e-09 0.00238498 6.72466e-14)
(-1.02228e-09 0.00238648 6.70529e-14)
(-1.026e-09 0.00239432 1.22964e-13)
(-1.03039e-09 0.00240283 1.24548e-13)
(-1.03485e-09 0.00241134 1.23119e-13)
(-1.0385e-09 0.00241918 6.71882e-14)
(-1.03692e-09 0.00242068 6.71141e-14)
(-1.04054e-09 0.00242853 1.22877e-13)
(-1.04506e-09 0.00243703 1.24638e-13)
(-1.04936e-09 0.00244554 1.22988e-13)
(-1.0532e-09 0.00245338 6.73326e-14)
(-1.05138e-09 0.00245489 6.69257e-14)
(-1.0553e-09 0.00246273 1.23096e-13)
(-1.05944e-09 0.00247124 1.24351e-13)
(-1.06421e-09 0.00247975 1.2332e-13)
(-1.06748e-09 0.00248759 6.69093e-14)
(-1.06637e-09 0.00248909 6.74353e-14)
(-1.06941e-09 0.00249694 1.22483e-13)
(-1.07463e-09 0.00250544 1.25605e-13)
(-1.07814e-09 0.00251399 1.25689e-13)
(-1.08336e-09 0.0025225 1.227e-13)
(-1.08641e-09 0.00253034 6.76327e-14)
(-1.08529e-09 0.00253185 6.67931e-14)
(-1.08856e-09 0.00253969 1.23247e-13)
(-1.09333e-09 0.0025482 1.24418e-13)
(-1.09747e-09 0.0025567 1.23298e-13)
(-1.10139e-09 0.00256455 6.71135e-14)
(-1.09957e-09 0.00256605 6.72059e-14)
(-1.10341e-09 0.00257389 1.22899e-13)
(-1.10772e-09 0.0025824 1.24685e-13)
(-1.11223e-09 0.00259091 1.23065e-13)
(-1.11586e-09 0.00259875 6.72888e-14)
(-1.11427e-09 0.00260025 6.70561e-14)
(-1.11792e-09 0.0026081 1.23009e-13)
(-1.12238e-09 0.00261661 1.24582e-13)
(-1.12677e-09 0.00262511 1.2313e-13)
(-1.13049e-09 0.00263295 6.72241e-14)
(-1.12883e-09 0.00263446 6.70988e-14)
(-1.13254e-09 0.0026423 1.22966e-13)
(-1.13695e-09 0.00265081 1.24601e-13)
(-1.14138e-09 0.00265932 1.23101e-13)
(-1.14507e-09 0.00266716 6.72319e-14)
(-1.14344e-09 0.00266866 6.70875e-14)
(-1.14712e-09 0.00267651 1.22961e-13)
(-1.15156e-09 0.00268501 1.24594e-13)
(-1.15597e-09 0.00269352 1.23085e-13)
(-1.15968e-09 0.00270136 6.72385e-14)
(-1.15802e-09 0.00270287 6.70666e-14)
(-1.16174e-09 0.00271071 1.22978e-13)
(-1.16613e-09 0.00271922 1.24555e-13)
(-1.17059e-09 0.00272772 1.23117e-13)
(-1.17424e-09 0.00273557 6.71829e-14)
(-1.17265e-09 0.00273707 6.71265e-14)
(-1.17628e-09 0.00274491 1.22892e-13)
(-1.18079e-09 0.00275342 1.24645e-13)
(-1.1851e-09 0.00276193 1.22987e-13)
(-1.18894e-09 0.00276977 6.73276e-14)
(-1.18711e-09 0.00277127 6.69387e-14)
(-1.19104e-09 0.00277912 1.23112e-13)
(-1.19518e-09 0.00278763 1.24359e-13)
(-1.19995e-09 0.00279613 1.2332e-13)
(-1.20322e-09 0.00280397 6.69049e-14)
(-1.2021e-09 0.00280548 6.74487e-14)
(-1.20515e-09 0.00281332 1.22499e-13)
(-1.21037e-09 0.00282183 1.25614e-13)
(-1.21387e-09 0.00283038 1.25689e-13)
(-1.21909e-09 0.00283889 1.22692e-13)
(-1.22214e-09 0.00284673 6.7624e-14)
(-1.22102e-09 0.00284823 6.68016e-14)
(-1.22429e-09 0.00285608 1.23255e-13)
(-1.22906e-09 0.00286458 1.24418e-13)
(-1.23321e-09 0.00287309 1.23291e-13)
(-1.23713e-09 0.00288093 6.71057e-14)
(-1.2353e-09 0.00288244 6.72148e-14)
(-1.23914e-09 0.00289028 1.22908e-13)
(-1.24345e-09 0.00289879 1.24686e-13)
(-1.24797e-09 0.0029073 1.23059e-13)
(-1.25159e-09 0.00291514 6.72821e-14)
(-1.25e-09 0.00291664 6.70648e-14)
(-1.25365e-09 0.00292449 1.23019e-13)
(-1.25811e-09 0.00293299 1.24584e-13)
(-1.26251e-09 0.0029415 1.23126e-13)
(-1.26623e-09 0.00294934 6.72165e-14)
(-1.26456e-09 0.00295085 6.71097e-14)
(-1.26827e-09 0.00295869 1.22974e-13)
(-1.27269e-09 0.0029672 1.24607e-13)
(-1.27712e-09 0.0029757 1.23094e-13)
(-1.28081e-09 0.00298355 6.72308e-14)
(-1.27917e-09 0.00298505 6.70912e-14)
(-1.28286e-09 0.00299289 1.2298e-13)
(-1.28728e-09 0.0030014 1.24589e-13)
(-1.29171e-09 0.00300991 1.23095e-13)
(-1.2954e-09 0.00301775 6.72177e-14)
(-1.29376e-09 0.00301925 6.70964e-14)
(-1.29745e-09 0.0030271 1.22964e-13)
(-1.30188e-09 0.0030356 1.24592e-13)
(-1.3063e-09 0.00304411 1.23075e-13)
(-1.31001e-09 0.00305195 6.72284e-14)
(-1.30835e-09 0.00305346 6.70742e-14)
(-1.31206e-09 0.0030613 1.22982e-13)
(-1.31646e-09 0.00306981 1.24554e-13)
(-1.32092e-09 0.00307831 1.23106e-13)
(-1.32457e-09 0.00308616 6.71755e-14)
(-1.32298e-09 0.00308766 6.71318e-14)
(-1.3266e-09 0.00309551 1.229e-13)
(-1.33112e-09 0.00310401 1.24642e-13)
(-1.33543e-09 0.00311252 1.2298e-13)
(-1.33927e-09 0.00312036 6.73174e-14)
(-1.33744e-09 0.00312187 6.69479e-14)
(-1.34137e-09 0.00312971 1.23117e-13)
(-1.34551e-09 0.00313822 1.24361e-13)
(-1.35028e-09 0.00314672 1.23311e-13)
(-1.35355e-09 0.00315457 6.6899e-14)
(-1.35243e-09 0.00315607 6.74545e-14)
(-1.35548e-09 0.00316391 1.22508e-13)
(-1.3607e-09 0.00317242 1.25612e-13)
(-1.3642e-09 0.00318097 1.25683e-13)
(-1.36942e-09 0.00318948 1.22676e-13)
(-1.37247e-09 0.00319732 6.76144e-14)
(-1.37135e-09 0.00319882 6.68033e-14)
(-1.37462e-09 0.00320667 1.23256e-13)
(-1.37939e-09 0.00321518 1.2441e-13)
(-1.38354e-09 0.00322368 1.2328e-13)
(-1.38746e-09 0.00323152 6.70931e-14)
(-1.38563e-09 0.00323303 6.72205e-14)
(-1.38947e-09 0.00324087 1.22907e-13)
(-1.39378e-09 0.00324938 1.24682e-13)
(-1.3983e-09 0.00325789 1.23045e-13)
(-1.40192e-09 0.00326573 6.72737e-14)
(-1.40033e-09 0.00326723 6.70674e-14)
(-1.40398e-09 0.00327508 1.23022e-13)
(-1.40844e-09 0.00328358 1.24577e-13)
(-1.41284e-09 0.00329209 1.23116e-13)
(-1.41656e-09 0.00329993 6.72063e-14)
(-1.41489e-09 0.00330144 6.71147e-14)
(-1.4186e-09 0.00330928 1.22976e-13)
(-1.42301e-09 0.00331779 1.24602e-13)
(-1.42745e-09 0.00332629 1.23086e-13)
(-1.43113e-09 0.00333414 6.72194e-14)
(-1.4295e-09 0.00333564 6.70999e-14)
(-1.43319e-09 0.00334348 1.22977e-13)
(-1.43762e-09 0.00335199 1.24593e-13)
(-1.44203e-09 0.0033605 1.23076e-13)
(-1.44574e-09 0.00336834 6.72232e-14)
(-1.44408e-09 0.00336984 6.70835e-14)
(-1.4478e-09 0.00337769 1.22991e-13)
(-1.45219e-09 0.0033862 1.2456e-13)
(-1.45665e-09 0.0033947 1.23105e-13)
(-1.4603e-09 0.00340254 6.71727e-14)
(-1.45872e-09 0.00340405 6.714e-14)
(-1.46234e-09 0.00341189 1.2291e-13)
(-1.46685e-09 0.0034204 1.24647e-13)
(-1.47116e-09 0.00342891 1.22981e-13)
(-1.475e-09 0.00343675 6.73145e-14)
(-1.47318e-09 0.00343825 6.69566e-14)
(-1.4771e-09 0.0034461 1.23127e-13)
(-1.48124e-09 0.0034546 1.24366e-13)
(-1.48601e-09 0.00346311 1.23312e-13)
(-1.48928e-09 0.00347095 6.68966e-14)
(-1.48816e-09 0.00347246 6.74634e-14)
(-1.49121e-09 0.0034803 1.22519e-13)
(-1.49643e-09 0.00348881 1.25619e-13)
(-1.49994e-09 0.00349736 1.25683e-13)
(-1.50516e-09 0.00350586 1.22672e-13)
(-1.50821e-09 0.00351371 6.76092e-14)
(-1.50709e-09 0.00351521 6.68092e-14)
(-1.51036e-09 0.00352306 1.23262e-13)
(-1.51513e-09 0.00353156 1.2441e-13)
(-1.51927e-09 0.00354007 1.23276e-13)
(-1.52319e-09 0.00354791 6.70884e-14)
(-1.52137e-09 0.00354942 6.72266e-14)
(-1.52521e-09 0.00355726 1.22913e-13)
(-1.52951e-09 0.00356577 1.24684e-13)
(-1.53403e-09 0.00357427 1.23041e-13)
(-1.53765e-09 0.00358212 6.72698e-14)
(-1.53607e-09 0.00358362 6.70732e-14)
(-1.53972e-09 0.00359146 1.23029e-13)
(-1.54418e-09 0.00359997 1.24579e-13)
(-1.54857e-09 0.00360848 1.23115e-13)
(-1.55229e-09 0.00361632 6.72012e-14)
(-1.55063e-09 0.00361782 6.71227e-14)
(-1.55434e-09 0.00362567 1.22981e-13)
(-1.55875e-09 0.00363417 1.24607e-13)
(-1.56318e-09 0.00364268 1.2308e-13)
(-1.56687e-09 0.00365052 6.72205e-14)
(-1.56523e-09 0.00365203 6.71006e-14)
(-1.56893e-09 0.00365987 1.22992e-13)
(-1.57335e-09 0.00366838 1.24587e-13)
(-1.57777e-09 0.00367688 1.23087e-13)
(-1.58147e-09 0.00368473 6.72044e-14)
(-1.57983e-09 0.00368623 6.71103e-14)
(-1.58352e-09 0.00369408 1.22973e-13)
(-1.58795e-09 0.00370258 1.24595e-13)
(-1.59236e-09 0.00371109 1.23064e-13)
(-1.59607e-09 0.00371893 6.72201e-14)
(-1.59441e-09 0.00372044 6.70845e-14)
(-1.59813e-09 0.00372828 1.22996e-13)
(-1.60252e-09 0.00373679 1.24555e-13)
(-1.60698e-09 0.00374529 1.231e-13)
(-1.61063e-09 0.00375314 6.7164e-14)
(-1.60905e-09 0.00375464 6.71466e-14)
(-1.61267e-09 0.00376248 1.22911e-13)
(-1.61718e-09 0.00377099 1.24648e-13)
(-1.62149e-09 0.0037795 1.22972e-13)
(-1.62533e-09 0.00378734 6.73108e-14)
(-1.62351e-09 0.00378884 6.6959e-14)
(-1.62743e-09 0.00379669 1.23133e-13)
(-1.63157e-09 0.00380519 1.24363e-13)
(-1.63634e-09 0.0038137 1.23308e-13)
(-1.63961e-09 0.00382154 6.6889e-14)
(-1.63849e-09 0.00382305 6.74704e-14)
(-1.64154e-09 0.00383089 1.22521e-13)
(-1.64676e-09 0.0038394 1.25621e-13)
(-1.65027e-09 0.00384795 1.25675e-13)
(-1.65549e-09 0.00385646 1.22664e-13)
(-1.65854e-09 0.0038643 6.7599e-14)
(-1.65742e-09 0.0038658 6.68134e-14)
(-1.66069e-09 0.00387365 1.23259e-13)
(-1.66545e-09 0.00388215 1.24408e-13)
(-1.6696e-09 0.00389066 1.23265e-13)
(-1.67352e-09 0.0038985 6.7083e-14)
(-1.6717e-09 0.00390001 6.72267e-14)
(-1.67554e-09 0.00390785 1.22915e-13)
(-1.67984e-09 0.00391636 1.24677e-13)
(-1.68436e-09 0.00392486 1.23035e-13)
(-1.68798e-09 0.00393271 6.72603e-14)
(-1.6864e-09 0.00393421 6.70782e-14)
(-1.69005e-09 0.00394205 1.23027e-13)
(-1.69451e-09 0.00395056 1.24578e-13)
(-1.6989e-09 0.00395907 1.23104e-13)
(-1.70262e-09 0.00396691 6.71978e-14)
(-1.70096e-09 0.00396841 6.71218e-14)
(-1.70467e-09 0.00397626 1.22986e-13)
(-1.70908e-09 0.00398477 1.24599e-13)
(-1.71351e-09 0.00399327 1.23078e-13)
(-1.7172e-09 0.00400111 6.72076e-14)
(-1.71556e-09 0.00400262 6.71116e-14)
(-1.71925e-09 0.00401046 1.22984e-13)
(-1.72368e-09 0.00401897 1.24596e-13)
(-1.72809e-09 0.00402748 1.23066e-13)
(-1.73181e-09 0.00403532 6.72163e-14)
(-1.73014e-09 0.00403682 6.70914e-14)
(-1.73386e-09 0.00404467 1.23003e-13)
(-1.73826e-09 0.00405317 1.24559e-13)
(-1.74272e-09 0.00406168 1.231e-13)
(-1.74637e-09 0.00406952 6.71624e-14)
(-1.74478e-09 0.00407103 6.71524e-14)
(-1.7484e-09 0.00407887 1.22919e-13)
(-1.75292e-09 0.00408738 1.24652e-13)
(-1.75722e-09 0.00409588 1.22973e-13)
(-1.76107e-09 0.00410373 6.73092e-14)
(-1.75924e-09 0.00410523 6.69652e-14)
(-1.76316e-09 0.00411307 1.23141e-13)
(-1.76731e-09 0.00412158 1.24368e-13)
(-1.77208e-09 0.00413009 1.23309e-13)
(-1.77534e-09 0.00413793 6.68875e-14)
(-1.77423e-09 0.00413944 6.74769e-14)
(-1.77728e-09 0.00414728 1.22529e-13)
(-1.7825e-09 0.00415579 1.25625e-13)
(-1.786e-09 0.00416433 1.25676e-13)
(-1.79122e-09 0.00417284 1.22661e-13)
(-1.79427e-09 0.00418069 6.75956e-14)
(-1.79315e-09 0.00418219 6.68177e-14)
(-1.79642e-09 0.00419003 1.23263e-13)
(-1.80119e-09 0.00419854 1.24409e-13)
(-1.80533e-09 0.00420705 1.23262e-13)
(-1.80926e-09 0.00421489 6.708e-14)
(-1.80743e-09 0.00421639 6.72312e-14)
(-1.81127e-09 0.00422424 1.2292e-13)
(-1.81558e-09 0.00423274 1.24679e-13)
(-1.82009e-09 0.00424125 1.23033e-13)
(-1.82372e-09 0.00424909 6.72578e-14)
(-1.82213e-09 0.0042506 6.70825e-14)
(-1.82578e-09 0.00425844 1.23032e-13)
(-1.83024e-09 0.00426695 1.24579e-13)
(-1.83464e-09 0.00427545 1.23103e-13)
(-1.83835e-09 0.0042833 6.71943e-14)
(-1.83669e-09 0.0042848 6.7128e-14)
(-1.8404e-09 0.00429265 1.2299e-13)
(-1.84481e-09 0.00430115 1.24604e-13)
(-1.84924e-09 0.00430966 1.23074e-13)
(-1.85294e-09 0.0043175 6.72099e-14)
(-1.8513e-09 0.00431901 6.71107e-14)
(-1.85499e-09 0.00432685 1.22997e-13)
(-1.85941e-09 0.00433536 1.24589e-13)
(-1.86384e-09 0.00434386 1.23078e-13)
(-1.86753e-09 0.00435171 6.71987e-14)
(-1.86589e-09 0.00435321 6.71164e-14)
(-1.86958e-09 0.00436105 1.22984e-13)
(-1.87401e-09 0.00436956 1.24594e-13)
(-1.87842e-09 0.00437807 1.2306e-13)
(-1.88213e-09 0.00438591 6.72106e-14)
(-1.88047e-09 0.00438741 6.70952e-14)
(-1.88419e-09 0.00439526 1.23003e-13)
(-1.88858e-09 0.00440376 1.24559e-13)
(-1.89305e-09 0.00441227 1.23093e-13)
(-1.89669e-09 0.00442011 6.71596e-14)
(-1.89511e-09 0.00442162 6.71533e-14)
(-1.89873e-09 0.00442946 1.22923e-13)
(-1.90325e-09 0.00443797 1.24648e-13)
(-1.90755e-09 0.00444647 1.2297e-13)
(-1.9114e-09 0.00445432 6.73026e-14)
(-1.90957e-09 0.00445582 6.69704e-14)
(-1.91349e-09 0.00446367 1.23141e-13)
(-1.91763e-09 0.00447217 1.24369e-13)
(-1.9224e-09 0.00448068 1.23303e-13)
(-1.92567e-09 0.00448852 6.68857e-14)
(-1.92456e-09 0.00449003 6.74779e-14)
(-1.9276e-09 0.00449787 1.22533e-13)
(-1.93282e-09 0.00450638 1.25623e-13)
(-1.93633e-09 0.00451493 1.25673e-13)
(-1.94155e-09 0.00452343 1.22652e-13)
(-1.9446e-09 0.00453128 6.75919e-14)
(-1.94348e-09 0.00453278 6.68168e-14)
(-1.94675e-09 0.00454062 1.23265e-13)
(-1.95152e-09 0.00454913 1.24402e-13)
(-1.95566e-09 0.00455764 1.23258e-13)
(-1.95958e-09 0.00456548 6.70722e-14)
(-1.95776e-09 0.00456699 6.72348e-14)
(-1.9616e-09 0.00457483 1.22917e-13)
(-1.96591e-09 0.00458333 1.24678e-13)
(-1.97042e-09 0.00459184 1.23024e-13)
(-1.97405e-09 0.00459968 6.72546e-14)
(-1.97246e-09 0.00460119 6.70821e-14)
(-1.97611e-09 0.00460903 1.23034e-13)
(-1.98057e-09 0.00461754 1.24574e-13)
(-1.98496e-09 0.00462605 1.23099e-13)
(-1.98868e-09 0.00463389 6.71881e-14)
(-1.98702e-09 0.00463539 6.71306e-14)
(-1.99073e-09 0.00464324 1.2299e-13)
(-1.99514e-09 0.00465174 1.24601e-13)
(-1.99958e-09 0.00466025 1.2307e-13)
(-2.00326e-09 0.00466809 6.72029e-14)
(-2.00163e-09 0.0046696 6.71162e-14)
(-2.00531e-09 0.00467744 1.22992e-13)
(-2.00975e-09 0.00468595 1.24594e-13)
(-2.01416e-09 0.00469445 1.23062e-13)
(-2.01787e-09 0.0047023 6.72076e-14)
(-2.01621e-09 0.0047038 6.71009e-14)
(-2.01993e-09 0.00471164 1.23007e-13)
(-2.02432e-09 0.00472015 1.24563e-13)
(-2.02878e-09 0.00472866 1.23093e-13)
(-2.03243e-09 0.0047365 6.71588e-14)
(-2.03084e-09 0.00473801 6.71576e-14)
(-2.03447e-09 0.00474585 1.22929e-13)
(-2.03898e-09 0.00475435 1.24652e-13)
(-2.04329e-09 0.00476286 1.22971e-13)
(-2.04713e-09 0.0047707 6.73015e-14)
(-2.04531e-09 0.00477221 6.69752e-14)
(-2.04923e-09 0.00478005 1.23147e-13)
(-2.05337e-09 0.00478856 1.24373e-13)
(-2.05814e-09 0.00479707 1.23304e-13)
(-2.06141e-09 0.00480491 6.68848e-14)
(-2.06029e-09 0.00480641 6.74827e-14)
(-2.06334e-09 0.00481426 1.2254e-13)
(-2.06856e-09 0.00482276 1.25627e-13)
(-2.07206e-09 0.00483131 1.25674e-13)
(-2.07729e-09 0.00483982 1.2265e-13)
(-2.08033e-09 0.00484766 6.75896e-14)
(-2.07922e-09 0.00484917 6.68201e-14)
(-2.08249e-09 0.00485701 1.23268e-13)
(-2.08725e-09 0.00486552 1.24404e-13)
(-2.0914e-09 0.00487402 1.23256e-13)
(-2.09532e-09 0.00488187 6.707e-14)
(-2.09349e-09 0.00488337 6.72384e-14)
(-2.09734e-09 0.00489122 1.22921e-13)
(-2.10164e-09 0.00489972 1.24679e-13)
(-2.10616e-09 0.00490823 1.23023e-13)
(-2.10978e-09 0.00491607 6.7253e-14)
(-2.10819e-09 0.00491758 6.70853e-14)
(-2.11184e-09 0.00492542 1.23039e-13)
(-2.1163e-09 0.00493393 1.24575e-13)
(-2.1207e-09 0.00494243 1.23099e-13)
(-2.12442e-09 0.00495028 6.71852e-14)
(-2.12276e-09 0.00495178 6.71359e-14)
(-2.12647e-09 0.00495962 1.22992e-13)
(-2.13088e-09 0.00496813 1.24606e-13)
(-2.13531e-09 0.00497664 1.23066e-13)
(-2.139e-09 0.00498448 6.72061e-14)
(-2.13736e-09 0.00498598 6.7114e-14)
(-2.14105e-09 0.00499383 1.23005e-13)
(-2.14548e-09 0.00500233 1.24586e-13)
(-2.1499e-09 0.00501084 1.23075e-13)
(-2.15359e-09 0.00501868 6.71906e-14)
(-2.15195e-09 0.00502019 6.71248e-14)
(-2.15564e-09 0.00502803 1.22987e-13)
(-2.16008e-09 0.00503654 1.24597e-13)
(-2.16449e-09 0.00504504 1.23053e-13)
(-2.1682e-09 0.00505289 6.72078e-14)
(-2.16654e-09 0.00505439 6.70991e-14)
(-2.17026e-09 0.00506224 1.23012e-13)
(-2.17465e-09 0.00507074 1.24558e-13)
(-2.17911e-09 0.00507925 1.23092e-13)
(-2.18276e-09 0.00508709 6.71523e-14)
(-2.18117e-09 0.0050886 6.71623e-14)
(-2.1848e-09 0.00509644 1.22927e-13)
(-2.18931e-09 0.00510495 1.24653e-13)
(-2.19362e-09 0.00511345 1.22965e-13)
(-2.19746e-09 0.0051213 6.73006e-14)
(-2.19563e-09 0.0051228 6.69748e-14)
(-2.19956e-09 0.00513064 1.23151e-13)
(-2.2037e-09 0.00513915 1.24369e-13)
(-2.20847e-09 0.00514766 1.23303e-13)
(-2.21174e-09 0.0051555 6.6879e-14)
(-2.21062e-09 0.005157 6.74875e-14)
(-2.21367e-09 0.00516485 1.22539e-13)
(-2.21889e-09 0.00517336 1.25628e-13)
(-2.22239e-09 0.0051819 1.25668e-13)
(-2.22761e-09 0.00519041 1.22647e-13)
(-2.23066e-09 0.00519825 6.75824e-14)
(-2.22954e-09 0.00519976 6.68235e-14)
(-2.23281e-09 0.0052076 1.23265e-13)
(-2.23758e-09 0.00521611 1.24403e-13)
(-2.24173e-09 0.00522462 1.23248e-13)
(-2.24565e-09 0.00523246 6.70683e-14)
(-2.24382e-09 0.00523396 6.72367e-14)
(-2.24766e-09 0.00524181 1.22923e-13)
(-2.25197e-09 0.00525031 1.24673e-13)
(-2.25649e-09 0.00525882 1.23021e-13)
(-2.26011e-09 0.00526666 6.72461e-14)
(-2.25852e-09 0.00526817 6.70893e-14)
(-2.26217e-09 0.00527601 1.23035e-13)