/*--------------------------------*- C++ -*----------------------------------*\
| =========                 |                                                 |
| \\      /  F ield         | OpenFOAM: The Open Source CFD Toolbox           |
|  \\    /   O peration     | Version:  2206                                  |
|   \\  /    A nd           | Website:  www.openfoam.com                      |
|    \\/     M anipulation  |                                                 |
\*---------------------------------------------------------------------------*/
FoamFile
{
    version     2.0;
    format      ascii;
    arch        "LSB;label=32;scalar=64";
    class       volScalarField;
    location    "500";
    object      p;
}
// * * * * * * * * * * * * * * * * * * * * * * * * * * * * * * * * * * * * * //

dimensions      [0 2 -2 0 0 0 0];

internalField   nonuniform List<scalar> 
100000
(
-2.29702e-10
-2.27207e-08
-3.59503e-08
-3.6005e-08
-3.31612e-08
-2.65416e-08
-2.38534e-08
-1.16554e-08
-1.67618e-09
1.61006e-08
3.22184e-08
4.80269e-08
6.92233e-08
9.11012e-08
1.18052e-07
1.45263e-07
1.701e-07
2.02332e-07
2.32912e-07
2.70961e-07
3.06474e-07
3.42656e-07
3.82714e-07
4.25103e-07
4.70329e-07
5.1891e-07
5.68752e-07
6.15463e-07
6.69872e-07
7.2259e-07
7.82386e-07
8.4033e-07
8.97708e-07
9.60653e-07
1.02364e-06
1.09227e-06
1.16021e-06
1.22662e-06
1.29939e-06
1.37153e-06
1.44986e-06
1.52703e-06
1.60306e-06
1.68512e-06
1.76682e-06
1.85448e-06
1.94116e-06
2.02654e-06
2.11809e-06
2.20914e-06
2.30629e-06
2.40231e-06
2.49718e-06
2.59807e-06
2.69861e-06
2.80508e-06
2.9106e-06
3.01476e-06
3.12519e-06
3.23498e-06
3.35103e-06
3.46573e-06
3.57955e-06
3.69907e-06
3.81862e-06
3.94363e-06
4.06825e-06
4.19084e-06
4.3205e-06
4.44855e-06
4.58403e-06
4.71674e-06
4.85027e-06
4.98747e-06
5.12712e-06
5.26941e-06
5.41517e-06
5.56198e-06
5.7058e-06
5.85719e-06
6.00691e-06
6.16368e-06
6.31852e-06
6.47285e-06
6.63269e-06
6.79256e-06
6.95808e-06
7.12282e-06
7.2861e-06
7.45568e-06
7.62464e-06
7.79978e-06
7.9737e-06
8.14652e-06
8.32536e-06
8.50379e-06
8.68824e-06
8.87159e-06
9.05375e-06
9.24198e-06
9.4298e-06
9.62359e-06
9.81637e-06
1.00078e-05
1.02055e-05
1.04026e-05
1.06059e-05
1.08079e-05
1.1009e-05
1.12158e-05
1.14226e-05
1.16348e-05
1.18467e-05
1.20565e-05
1.22734e-05
1.24887e-05
1.27114e-05
1.29314e-05
1.31521e-05
1.33766e-05
1.36034e-05
1.38329e-05
1.40659e-05
1.42999e-05
1.4531e-05
1.47696e-05
1.50065e-05
1.52505e-05
1.54925e-05
1.57341e-05
1.59811e-05
1.62282e-05
1.64809e-05
1.67328e-05
1.69833e-05
1.72401e-05
1.74962e-05
1.77586e-05
1.80196e-05
1.82797e-05
1.85457e-05
1.88113e-05
1.90829e-05
1.93535e-05
1.96228e-05
1.98982e-05
2.01732e-05
2.04542e-05
2.07341e-05
2.10128e-05
2.12976e-05
2.15819e-05
2.18723e-05
2.21616e-05
2.24496e-05
2.27438e-05
2.30374e-05
2.33373e-05
2.36358e-05
2.39334e-05
2.42368e-05
2.45401e-05
2.48489e-05
2.51573e-05
2.54636e-05
2.57771e-05
2.60889e-05
2.64082e-05
2.67246e-05
2.70419e-05
2.73628e-05
2.76863e-05
2.80123e-05
2.83418e-05
2.86723e-05
2.89999e-05
2.9335e-05
2.96684e-05
3.0009e-05
3.03475e-05
3.06856e-05
3.10291e-05
3.13727e-05
3.17219e-05
3.20704e-05
3.24174e-05
3.27707e-05
3.31233e-05
3.34822e-05
3.38398e-05
3.41963e-05
3.45588e-05
3.49209e-05
3.52891e-05
3.56561e-05
3.6022e-05
3.63939e-05
3.67654e-05
3.71429e-05
3.75193e-05
3.78945e-05
3.82759e-05
3.86566e-05
3.90436e-05
3.94292e-05
3.9814e-05
4.02044e-05
4.05949e-05
4.09908e-05
4.13864e-05
4.17799e-05
4.21804e-05
4.25794e-05
4.29858e-05
4.33893e-05
4.37938e-05
4.42018e-05
4.46124e-05
4.50255e-05
4.54422e-05
4.58598e-05
4.62745e-05
4.66968e-05
4.71174e-05
4.7545e-05
4.79707e-05
4.83958e-05
4.88265e-05
4.92572e-05
4.96936e-05
5.01292e-05
5.05633e-05
5.10037e-05
5.14435e-05
5.18895e-05
5.23342e-05
5.27779e-05
5.32275e-05
5.36768e-05
5.4132e-05
5.45862e-05
5.50391e-05
5.54982e-05
5.59568e-05
5.64215e-05
5.68849e-05
5.73473e-05
5.78157e-05
5.82837e-05
5.87577e-05
5.92306e-05
5.97023e-05
6.01801e-05
6.06573e-05
6.11409e-05
6.1623e-05
6.21042e-05
6.25911e-05
6.30781e-05
6.35705e-05
6.40625e-05
6.45525e-05
6.50496e-05
6.5545e-05
6.60479e-05
6.65479e-05
6.70489e-05
6.75534e-05
6.80605e-05
6.85701e-05
6.90832e-05
6.95974e-05
7.01086e-05
7.06273e-05
7.11443e-05
7.16685e-05
7.21906e-05
7.27123e-05
7.32395e-05
7.37667e-05
7.42995e-05
7.48316e-05
7.53622e-05
7.58991e-05
7.64353e-05
7.69778e-05
7.7519e-05
7.80591e-05
7.86053e-05
7.9151e-05
7.97028e-05
8.02534e-05
8.08029e-05
8.13584e-05
8.19135e-05
8.24746e-05
8.30346e-05
8.35934e-05
8.41584e-05
8.47227e-05
8.52933e-05
8.58626e-05
8.64309e-05
8.7005e-05
8.7579e-05
8.81586e-05
8.87377e-05
8.93148e-05
8.9899e-05
9.04815e-05
9.10715e-05
9.16587e-05
9.22467e-05
9.28384e-05
9.34326e-05
9.40293e-05
9.46296e-05
9.52308e-05
9.58291e-05
9.64349e-05
9.70391e-05
9.76504e-05
9.82596e-05
9.88684e-05
9.94827e-05
0.000100097
0.000100717
0.000101336
0.000101954
0.000102578
0.000103201
0.000103831
0.000104459
0.000105086
0.00010572
0.000106352
0.000106991
0.000107629
0.000108266
0.000108908
0.00010955
0.000110199
0.000110846
0.000111492
0.000112144
0.000112795
0.000113453
0.000114109
0.000114765
0.000115426
0.000116087
0.000116754
0.00011742
0.000118085
0.000118755
0.000119426
0.000120102
0.000120777
0.000121451
0.000122132
0.000122811
0.000123497
0.000124181
0.000124865
0.000125553
0.000126244
0.000126937
0.000127634
0.000128332
0.000129026
0.000129729
0.000130429
0.000131137
0.000131843
0.000132548
0.000133259
0.00013397
0.000134686
0.000135402
0.000136116
0.000136836
0.000137556
0.000138282
0.000139007
0.000139731
0.000140461
0.00014119
0.000141925
0.000142659
0.000143393
0.000144132
0.00014487
0.000145615
0.000146359
0.000147101
0.00014785
0.000148597
0.000149352
0.000150104
0.000150856
0.000151614
0.000152372
0.000153135
0.000153898
0.000154658
0.000155426
0.000156192
0.000156966
0.000157736
0.000158508
0.000159283
0.000160061
0.000160841
0.000161625
0.00016241
0.000163192
0.000163981
0.000164769
0.000165564
0.000166357
0.000167149
0.000167947
0.000168745
0.000169549
0.000170351
0.000171153
0.00017196
0.000172767
0.00017358
0.000174392
0.000175203
0.00017602
0.000176836
0.000177659
0.00017848
0.0001793
0.000180126
0.000180952
0.000181784
0.000182615
0.000183444
0.00018428
0.000185115
0.000185956
0.000186796
0.000187635
0.00018848
0.000189325
0.000190175
0.000191024
0.000191873
0.000192727
0.000193581
0.000194441
0.0001953
0.000196157
0.000197021
0.000197884
0.000198754
0.000199621
0.000200489
0.000201361
0.000202235
0.000203112
0.000203992
0.000204874
0.000205752
0.000206638
0.000207522
0.000208413
0.000209303
0.000210192
0.000211086
0.00021198
0.00021288
0.00021378
0.000214677
0.000215581
0.000216485
0.000217394
0.000218303
0.00021921
0.000220123
0.000221036
0.000221955
0.000222873
0.00022379
0.000224712
0.000225635
0.000226563
0.00022749
0.000228416
0.000229348
0.00023028
0.000231217
0.000232154
0.000233089
0.000234031
0.000234972
0.000235919
0.000236865
0.000237809
0.00023876
0.00023971
0.000240667
0.000241622
0.000242577
0.000243536
0.000244497
0.000245461
0.000246428
0.000247397
0.000248362
0.000249335
0.000250307
0.000251285
0.000252261
0.000253237
0.000254219
0.0002552
0.000256187
0.000257174
0.000258159
0.00025915
0.00026014
0.000261137
0.000262132
0.000263127
0.000264127
0.000265127
0.000266133
0.000267138
0.000268142
0.000269152
0.000270161
0.000271177
0.000272191
0.000273204
0.000274223
0.000275242
0.000276267
0.00027729
0.000278313
0.000279341
0.000280369
0.000281403
0.000282436
0.000283468
0.000284506
0.000285544
0.000286587
0.00028763
0.00028867
0.000289718
0.000290764
0.000291818
0.000292869
0.00029392
0.000294976
0.000296034
0.000297094
0.000298158
0.000299223
0.000300285
0.000301354
0.000302422
0.000303497
0.00030457
0.000305642
0.00030672
0.000307798
0.000308882
0.000309964
0.000311046
0.000312133
0.00031322
0.000314314
0.000315405
0.000316496
0.000317593
0.00031869
0.000319792
0.000320894
0.000321994
0.0003231
0.000324206
0.000325318
0.000326429
0.000327538
0.000328654
0.000329769
0.00033089
0.00033201
0.000333129
0.000334254
0.000335379
0.000336509
0.000337639
0.000338767
0.000339902
0.000341035
0.000342176
0.000343314
0.000344452
0.000345595
0.00034674
0.000347887
0.000349038
0.00035019
0.000351339
0.000352496
0.000353651
0.000354813
0.000355973
0.000357132
0.000358297
0.000359462
0.000360633
0.000361803
0.000362971
0.000364146
0.00036532
0.000366501
0.00036768
0.000368858
0.000370042
0.000371225
0.000372415
0.000373603
0.00037479
0.000375984
0.000377177
0.000378376
0.000379574
0.00038077
0.000381973
0.000383175
0.000384384
0.000385591
0.000386797
0.000388009
0.000389221
0.000390438
0.000391655
0.00039287
0.000394092
0.000395313
0.00039654
0.000397766
0.00039899
0.000400222
0.000401452
0.000402689
0.000403923
0.000405158
0.000406397
0.000407639
0.000408883
0.00041013
0.000411378
0.000412624
0.000413877
0.000415128
0.000416387
0.000417643
0.000418899
0.000420161
0.000421422
0.000422689
0.000423956
0.000425221
0.000426492
0.000427763
0.000429039
0.000430315
0.000431589
0.00043287
0.00043415
0.000435436
0.000436721
0.000438005
0.000439294
0.000440584
0.000441879
0.000443174
0.000444467
0.000445766
0.000447065
0.00044837
0.000449673
0.000450976
0.000452284
0.000453593
0.000454906
0.00045622
0.000457531
0.00045885
0.000460167
0.000461491
0.000462812
0.000464135
0.000465461
0.000466789
0.00046812
0.000469455
0.00047079
0.000472123
0.000473463
0.000474802
0.000476147
0.000477491
0.000478834
0.000480182
0.000481531
0.000482885
0.000484239
0.000485591
0.000486949
0.000488307
0.000489671
0.000491033
0.000492395
0.000493762
0.00049513
0.000496503
0.000497875
0.000499246
0.000500623
0.000501999
0.000503382
0.000504763
0.000506143
0.00050753
0.000508916
0.000510307
0.000511698
0.000513088
0.000514484
0.000515879
0.00051728
0.00051868
0.000520079
0.000521484
0.000522889
0.000524299
0.000525709
0.000527117
0.000528532
0.000529945
0.000531366
0.000532784
0.000534203
0.000535625
0.00053705
0.000538478
0.000539909
0.000541341
0.00054277
0.000544206
0.000545641
0.000547083
0.000548523
0.000549963
0.000551408
0.000552853
0.000554304
0.000555754
0.000557202
0.000558657
0.000560111
0.000561572
0.000563031
0.000564489
0.000565953
0.000567416
0.000568886
0.000570355
0.000571822
0.000573295
0.000574768
0.000576247
0.000577725
0.000579202
0.000580685
0.000582167
0.000583655
0.000585143
0.000586629
0.000588121
0.000589613
0.00059111
0.000592607
0.000594102
0.000595604
0.000597105
0.000598612
0.000600118
0.000601623
0.000603133
0.000604645
0.00060616
0.000607678
0.000609197
0.000610713
0.000612237
0.000613759
0.000615288
0.000616815
0.000618342
0.000619874
0.000621406
0.000622944
0.000624481
0.000626017
0.000627559
0.0006291
0.000630647
0.000632193
0.000633739
0.00063529
0.00063684
0.000638397
0.000639953
0.000641507
0.000643068
0.000644628
0.000646194
0.000647759
0.000649323
0.000650893
0.000652462
0.000654038
0.000655612
0.000657185
0.000658764
0.000660343
0.000661928
0.000663512
0.000665094
0.000666683
0.000668271
0.000669865
0.000671459
0.00067305
0.000674649
0.000676245
0.00067785
0.000679451
0.000681054
0.00068266
0.000684268
0.000685879
0.000687494
0.000689109
0.000690722
0.000692342
0.000693961
0.000695586
0.00069721
0.000698833
0.000700462
0.00070209
0.000703725
0.000705358
0.00070699
0.000708629
0.000710266
0.00071191
0.000713553
0.000715195
0.000716842
0.000718489
0.000720143
0.000721795
0.000723446
0.000725103
0.000726759
0.000728422
0.000730083
0.000731743
0.00073341
0.000735076
0.000736748
0.000738418
0.000740088
0.000741764
0.000743439
0.00074512
0.000746801
0.000748479
0.000750165
0.000751849
0.00075354
0.000755229
0.000756919
0.000758612
0.000760307
0.000762005
0.000763707
0.00076541
0.00076711
0.000768817
0.000770523
0.000772235
0.000773946
0.000775656
0.000777372
0.000779088
0.000780809
0.00078253
0.000784249
0.000785974
0.000787699
0.00078943
0.00079116
0.000792889
0.000794623
0.000796358
0.000798098
0.000799837
0.000801575
0.000803319
0.000805063
0.000806813
0.000808561
0.000810309
0.000812062
0.000813815
0.000815574
0.000817332
0.000819089
0.000820852
0.000822614
0.000824382
0.00082615
0.000827916
0.000829688
0.00083146
0.000833237
0.000835014
0.000836789
0.000838571
0.000840352
0.00084214
0.000843925
0.000845711
0.0008475
0.000849293
0.000851087
0.000852885
0.000854684
0.000856481
0.000858284
0.000860087
0.000861896
0.000863703
0.00086551
0.000867322
0.000869134
0.000870952
0.000872769
0.000874585
0.000876407
0.000878228
0.000880055
0.000881882
0.000883707
0.000885538
0.000887369
0.000889205
0.000891041
0.000892876
0.000894716
0.000896556
0.000898402
0.000900247
0.000902091
0.000903941
0.000905791
0.000907646
0.000909501
0.000911354
0.000913213
0.000915072
0.000916937
0.000918801
0.000920663
0.000922532
0.0009244
0.000926275
0.000928147
0.00093002
0.000931897
0.000933776
0.000935658
0.000937543
0.000939429
0.000941312
0.000943203
0.000945092
0.000946989
0.000948883
0.000950777
0.000952676
0.000954575
0.00095648
0.000958385
0.000960287
0.000962196
0.000964105
0.000966019
0.000967933
0.000969845
0.000971763
0.000973681
0.000975605
0.000977528
0.000979449
0.000981377
0.000983304
0.000985238
0.00098717
0.000989101
0.000991038
0.000992974
0.000994917
0.000996858
0.000998799
0.00100075
0.00100269
0.00100464
0.00100659
0.00100854
0.0010105
0.00101245
0.00101442
0.00101638
0.00101833
0.0010203
0.00102226
0.00102424
0.0010262
0.00102817
0.00103015
0.00103212
0.0010341
0.00103608
0.00103807
0.00104005
0.00104203
0.00104402
0.00104601
0.001048
0.00104999
0.00105199
0.00105398
0.00105599
0.00105799
0.00105999
0.00106199
0.001064
0.00106601
0.00106802
0.00107003
0.00107204
0.00107405
0.00107607
0.00107809
0.00108011
0.00108214
0.00108416
0.00108619
0.00108822
0.00109025
0.00109228
0.00109431
0.00109635
0.00109839
0.00110043
0.00110247
0.00110451
0.00110656
0.00110861
0.00111065
0.00111271
0.00111476
0.00111682
0.00111887
0.00112093
0.00112299
0.00112505
0.00112712
0.00112918
0.00113125
0.00113332
0.0011354
0.00113747
0.00113955
0.00114163
0.0011437
0.00114579
0.00114787
0.00114996
0.00115205
0.00115413
0.00115622
0.00115832
0.00116041
0.00116251
0.00116461
0.00116671
0.00116881
0.00117092
0.00117302
0.00117513
0.00117724
0.00117935
0.00118147
0.00118358
0.0011857
0.00118782
0.00118994
0.00119207
0.00119419
0.00119631
0.00119844
0.00120057
0.00120271
0.00120484
0.00120698
0.00120912
0.00121126
0.0012134
0.00121554
0.00121769
0.00121984
0.00122198
0.00122414
0.00122629
0.00122844
0.0012306
0.00123276
0.00123492
0.00123709
0.00123925
0.00124142
0.00124359
0.00124576
0.00124793
0.00125011
0.00125228
0.00125446
0.00125664
0.00125882
0.00126101
0.00126319
0.00126538
0.00126757
0.00126976
0.00127196
0.00127415
0.00127635
0.00127855
0.00128075
0.00128295
0.00128515
0.00128736
0.00128957
0.00129178
0.00129399
0.00129621
0.00129842
0.00130064
0.00130286
0.00130508
0.0013073
0.00130953
0.00131176
0.00131399
0.00131622
0.00131845
0.00132069
0.00132292
0.00132516
0.0013274
0.00132964
0.00133189
0.00133413
0.00133638
0.00133863
0.00134089
0.00134314
0.00134539
0.00134765
0.00134991
0.00135218
0.00135444
0.0013567
0.00135897
0.00136124
0.00136351
0.00136578
0.00136806
0.00137033
0.00137262
0.0013749
0.00137718
0.00137946
0.00138175
0.00138404
0.00138633
0.00138862
0.00139091
0.00139321
0.00139551
0.00139781
0.0014001
0.00140241
0.00140471
0.00140702
0.00140933
0.00141164
0.00141395
0.00141626
0.00141858
0.0014209
0.00142322
0.00142554
0.00142786
0.00143019
0.00143252
0.00143484
0.00143718
0.00143951
0.00144185
0.00144418
0.00144652
0.00144886
0.0014512
0.00145355
0.0014559
0.00145825
0.00146059
0.00146295
0.0014653
0.00146766
0.00147002
0.00147238
0.00147474
0.0014771
0.00147947
0.00148184
0.0014842
0.00148658
0.00148895
0.00149133
0.0014937
0.00149608
0.00149846
0.00150084
0.00150323
0.00150562
0.001508
0.00151039
0.00151279
0.00151518
0.00151758
0.00151997
0.00152237
0.00152477
0.00152718
0.00152958
0.00153199
0.0015344
0.00153681
0.00153922
0.00154164
0.00154405
0.00154647
0.00154889
0.00155131
0.00155374
0.00155616
0.00155859
0.00156102
0.00156345
0.00156589
0.00156832
0.00157076
0.0015732
0.00157564
0.00157809
0.00158053
0.00158298
0.00158543
0.00158788
0.00159033
0.00159279
0.00159524
0.0015977
0.00160016
0.00160262
0.00160509
0.00160755
0.00161002
0.00161249
0.00161496
0.00161744
0.00161991
0.00162239
0.00162487
0.00162735
0.00162983
0.00163231
0.0016348
0.00163729
0.00163978
0.00164227
0.00164477
0.00164726
0.00164976
0.00165226
0.00165476
0.00165726
0.00165977
0.00166228
0.00166479
0.0016673
0.00166981
0.00167233
0.00167484
0.00167736
0.00167988
0.0016824
0.00168493
0.00168745
0.00168998
0.00169251
0.00169505
0.00169758
0.00170012
0.00170265
0.0017052
0.00170774
0.00171028
0.00171282
0.00171537
0.00171792
0.00172047
0.00172302
0.00172558
0.00172814
0.0017307
0.00173326
0.00173582
0.00173838
0.00174095
0.00174352
0.00174609
0.00174866
0.00175123
0.00175381
0.00175639
0.00175897
0.00176154
0.00176413
0.00176671
0.0017693
0.00177189
0.00177448
0.00177707
0.00177967
0.00178226
0.00178486
0.00178746
0.00179006
0.00179266
0.00179527
0.00179788
0.00180049
0.0018031
0.00180571
0.00180833
0.00181095
0.00181357
0.00181619
0.00181881
0.00182143
0.00182406
0.00182669
0.00182932
0.00183196
0.00183459
0.00183723
0.00183987
0.0018425
0.00184515
0.00184779
0.00185044
0.00185309
0.00185573
0.00185838
0.00186104
0.0018637
0.00186635
0.00186901
0.00187167
0.00187433
0.001877
0.00187967
0.00188233
0.001885
0.00188767
0.00189035
0.00189303
0.0018957
0.00189838
0.00190106
0.00190375
0.00190643
0.00190912
0.00191181
0.0019145
0.00191719
0.00191989
0.00192258
0.00192528
0.00192798
0.00193068
0.00193339
0.00193609
0.0019388
0.00194151
0.00194422
0.00194694
0.00194965
0.00195237
0.00195509
0.00195781
0.00196054
0.00196326
0.00196598
0.00196872
0.00197145
0.00197418
0.00197692
0.00197965
0.00198239
0.00198513
0.00198787
0.00199062
0.00199336
0.00199611
0.00199886
0.00200161
0.00200437
0.00200712
0.00200988
0.00201263
0.0020154
0.00201816
0.00202092
0.00202369
0.00202646
0.00202923
0.002032
0.00203478
0.00203755
0.00204033
0.00204311
0.00204589
0.00204867
0.00205146
0.00205425
0.00205704
0.00205983
0.00206262
0.00206541
0.00206821
0.00207101
0.00207381
0.00207662
0.00207942
0.00208223
0.00208504
0.00208785
0.00209066
0.00209347
0.00209629
0.00209911
0.00210193
0.00210475
0.00210757
0.0021104
0.00211323
0.00211606
0.00211889
0.00212172
0.00212456
0.00212739
0.00213023
0.00213307
0.00213591
0.00213876
0.0021416
0.00214445
0.0021473
0.00215015
0.00215301
0.00215586
0.00215872
0.00216158
0.00216444
0.00216731
0.00217017
0.00217304
0.00217591
0.00217878
0.00218165
0.00218452
0.0021874
0.00219028
0.00219316
0.00219604
0.00219892
0.00220181
0.0022047
0.00220758
0.00221048
0.00221337
0.00221626
0.00221916
0.00222206
0.00222496
0.00222787
0.00223077
0.00223368
0.00223659
0.0022395
0.00224241
0.00224533
0.00224825
0.00225116
0.00225408
0.002257
0.00225993
0.00226286
0.00226578
0.00226871
0.00227164
0.00227457
0.00227751
0.00228045
0.00228339
0.00228633
0.00228927
0.00229222
0.00229516
0.00229811
0.00230106
0.00230401
0.00230697
0.00230992
0.00231288
0.00231584
0.0023188
0.00232177
0.00232473
0.00232769
0.00233066
0.00233363
0.00233661
0.00233958
0.00234256
0.00234554
0.00234852
0.0023515
0.00235448
0.00235747
0.00236046
0.00236345
0.00236644
0.00236943
0.00237243
0.00237543
0.00237843
0.00238143
0.00238443
0.00238744
0.00239044
0.00239345
0.00239646
0.00239948
0.00240249
0.00240551
0.00240853
0.00241155
0.00241457
0.0024176
0.00242062
0.00242365
0.00242668
0.00242971
0.00243275
0.00243578
0.00243882
0.00244185
0.0024449
0.00244794
0.00245098
0.00245403
0.00245708
0.00246013
0.00246318
0.00246624
0.00246929
0.00247235
0.00247541
0.00247847
0.00248153
0.0024846
0.00248767
0.00249074
0.00249381
0.00249688
0.00249995
0.00250303
0.00250611
0.00250919
0.00251228
0.00251536
0.00251845
0.00252154
0.00252463
0.00252772
0.00253081
0.00253391
0.00253701
0.00254011
0.00254321
0.00254631
0.00254942
0.00255253
0.00255564
0.00255875
0.00256186
0.00256498
0.00256809
0.00257121
0.00257433
0.00257745
0.00258058
0.0025837
0.00258684
0.00258997
0.00259309
0.00259623
0.00259936
0.0026025
0.00260564
0.00260878
0.00261193
0.00261507
0.00261822
0.00262137
0.00262452
0.00262767
0.00263082
0.00263398
0.00263714
0.0026403
0.00264346
0.00264662
0.00264979
0.00265296
0.00265613
0.0026593
0.00266247
0.00266565
0.00266883
0.00267201
0.00267518
0.00267837
0.00268155
0.00268474
0.00268793
0.00269112
0.00269431
0.00269751
0.00270071
0.00270391
0.0027071
0.00271031
0.00271351
0.00271672
0.00271993
0.00272313
0.00272634
0.00272956
0.00273278
0.00273599
0.00273921
0.00274243
0.00274565
0.00274888
0.00275211
0.00275533
0.00275856
0.00276179
0.00276503
0.00276827
0.0027715
0.00277474
0.00277798
0.00278123
0.00278447
0.00278772
0.00279097
0.00279422
0.00279747
0.00280073
0.00280398
0.00280724
0.0028105
0.00281376
0.00281703
0.0028203
0.00282356
0.00282684
0.00283011
0.00283338
0.00283666
0.00283993
0.00284322
0.0028465
0.00284978
0.00285307
0.00285635
0.00285964
0.00286293
0.00286623
0.00286952
0.00287282
0.00287612
0.00287942
0.00288272
0.00288603
0.00288933
0.00289264
0.00289595
0.00289926
0.00290257
0.00290589
0.00290921
0.00291252
0.00291585
0.00291917
0.00292249
0.00292582
0.00292915
0.00293248
0.00293581
0.00293914
0.00294248
0.00294582
0.00294916
0.0029525
0.00295584
0.00295919
0.00296254
0.00296589
0.00296924
0.00297259
0.00297594
0.0029793
0.00298266
0.00298602
0.00298939
0.00299275
0.00299612
0.00299949
0.00300286
0.00300623
0.0030096
0.00301298
0.00301636
0.00301974
0.00302312
0.0030265
0.00302989
0.00303328
0.00303667
0.00304006
0.00304345
0.00304685
0.00305024
0.00305364
0.00305705
0.00306044
0.00306385
0.00306726
0.00307067
0.00307408
0.00307749
0.0030809
0.00308431
0.00308774
0.00309115
0.00309457
0.003098
0.00310142
0.00310485
0.00310828
0.00311171
0.00311514
0.00311857
0.00312201
0.00312545
0.00312889
0.00313233
0.00313578
0.00313922
0.00314267
0.00314612
0.00314957
0.00315303
0.00315648
0.00315994
0.0031634
0.00316686
0.00317033
0.00317379
0.00317726
0.00318073
0.0031842
0.00318767
0.00319114
0.00319462
0.0031981
0.00320158
0.00320506
0.00320855
0.00321203
0.00321552
0.00321901
0.0032225
0.00322599
0.00322949
0.00323299
0.00323649
0.00323999
0.00324349
0.003247
0.0032505
0.00325401
0.00325752
0.00326103
0.00326455
0.00326806
0.00327158
0.0032751
0.00327862
0.00328215
0.00328567
0.0032892
0.00329273
0.00329625
0.00329979
0.00330332
0.00330686
0.0033104
0.00331394
0.00331748
0.00332103
0.00332458
0.00332812
0.00333167
0.00333522
0.00333878
0.00334234
0.00334589
0.00334945
0.00335301
0.00335658
0.00336015
0.00336371
0.00336728
0.00337085
0.00337443
0.003378
0.00338158
0.00338516
0.00338873
0.00339232
0.0033959
0.00339949
0.00340308
0.00340667
0.00341026
0.00341385
0.00341745
0.00342104
0.00342464
0.00342825
0.00343185
0.00343545
0.00343906
0.00344267
0.00344628
0.00344989
0.0034535
0.00345712
0.00346074
0.00346436
0.00346798
0.0034716
0.00347523
0.00347886
0.00348249
0.00348612
0.00348976
0.00349339
0.00349703
0.00350066
0.00350431
0.00350795
0.00351159
0.00351524
0.00351889
0.00352254
0.0035262
0.00352985
0.00353351
0.00353716
0.00354083
0.00354449
0.00354815
0.00355182
0.00355548
0.00355915
0.00356283
0.0035665
0.00357017
0.00357385
0.00357753
0.00358121
0.00358489
0.00358858
0.00359226
0.00359595
0.00359964
0.00360333
0.00360703
0.00361072
0.00361442
0.00361812
0.00362182
0.00362552
0.00362923
0.00363294
0.00363665
0.00364035
0.00364407
0.00364778
0.0036515
0.00365522
0.00365894
0.00366266
0.00366638
0.00367011
0.00367384
0.00367757
0.0036813
0.00368503
0.00368877
0.00369251
0.00369625
0.00369999
0.00370373
0.00370748
0.00371123
0.00371498
0.00371872
0.00372248
0.00372623
0.00372999
0.00373375
0.00373751
0.00374127
0.00374503
0.0037488
0.00375257
0.00375634
0.00376011
0.00376388
0.00376766
0.00377144
0.00377521
0.00377899
0.00378278
0.00378656
0.00379035
0.00379414
0.00379793
0.00380172
0.00380551
0.00380931
0.00381311
0.00381691
0.00382071
0.00382451
0.00382832
0.00383212
0.00383593
0.00383974
0.00384356
0.00384737
0.00385119
0.00385501
0.00385883
0.00386265
0.00386648
0.00387031
0.00387413
0.00387797
0.0038818
0.00388563
0.00388947
0.00389331
0.00389715
0.00390099
0.00390483
0.00390868
0.00391252
0.00391637
0.00392022
0.00392408
0.00392793
0.00393179
0.00393565
0.00393951
0.00394337
0.00394724
0.0039511
0.00395497
0.00395884
0.00396271
0.00396659
0.00397046
0.00397434
0.00397822
0.0039821
0.00398598
0.00398987
0.00399375
0.00399764
0.00400153
0.00400543
0.00400932
0.00401321
0.00401711
0.00402101
0.00402492
0.00402882
0.00403272
0.00403663
0.00404054
0.00404445
0.00404837
0.00405228
0.0040562
0.00406012
0.00406404
0.00406797
0.00407189
0.00407582
0.00407974
0.00408368
0.00408761
0.00409154
0.00409548
0.00409942
0.00410336
0.0041073
0.00411124
0.00411519
0.00411914
0.00412309
0.00412704
0.00413099
0.00413495
0.0041389
0.00414286
0.00414683
0.00415078
0.00415475
0.00415872
0.00416269
0.00416666
0.00417063
0.0041746
0.00417858
0.00418256
0.00418654
0.00419051
0.0041945
0.00419848
0.00420247
0.00420646
0.00421045
0.00421444
0.00421844
0.00422243
0.00422644
0.00423044
0.00423444
0.00423844
0.00424245
0.00424646
0.00425047
0.00425448
0.00425849
0.00426251
0.00426653
0.00427055
0.00427457
0.00427859
0.00428262
0.00428665
0.00429068
0.0042947
0.00429874
0.00430277
0.00430681
0.00431085
0.00431489
0.00431893
0.00432297
0.00432702
0.00433107
0.00433512
0.00433917
0.00434322
0.00434728
0.00435134
0.00435539
0.00435946
0.00436352
0.00436759
0.00437165
0.00437572
0.00437979
0.00438386
0.00438794
0.00439201
0.00439609
0.00440017
0.00440425
0.00440834
0.00441242
0.00441651
0.00442059
0.00442469
0.00442878
0.00443288
0.00443698
0.00444107
0.00444517
0.00444928
0.00445338
0.00445749
0.0044616
0.00446571
0.00446982
0.00447394
0.00447805
0.00448217
0.00448629
0.00449041
0.00449454
0.00449866
0.00450279
0.00450692
0.00451105
0.00451518
0.00451932
0.00452345
0.00452759
0.00453173
0.00453588
0.00454002
0.00454416
0.00454831
0.00455246
0.00455662
0.00456077
0.00456492
0.00456908
0.00457324
0.0045774
0.00458157
0.00458573
0.0045899
0.00459406
0.00459824
0.00460241
0.00460658
0.00461076
0.00461494
0.00461912
0.0046233
0.00462749
0.00463167
0.00463586
0.00464005
0.00464424
0.00464844
0.00465263
0.00465683
0.00466103
0.00466523
0.00466944
0.00467364
0.00467785
0.00468205
0.00468627
0.00469048
0.00469469
0.00469891
0.00470313
0.00470735
0.00471157
0.00471579
0.00472002
0.00472425
0.00472848
0.00473271
0.00473694
0.00474118
0.00474541
0.00474965
0.00475389
0.00475813
0.00476238
0.00476663
0.00477088
0.00477513
0.00477938
0.00478363
0.00478789
0.00479215
0.00479641
0.00480066
0.00480493
0.00480919
0.00481346
0.00481773
0.004822
0.00482627
0.00483055
0.00483482
0.00483911
0.00484339
0.00484767
0.00485195
0.00485624
0.00486053
0.00486482
0.00486911
0.0048734
0.0048777
0.004882
0.0048863
0.0048906
0.0048949
0.00489921
0.00490352
0.00490783
0.00491214
0.00491645
0.00492076
0.00492508
0.0049294
0.00493372
0.00493804
0.00494236
0.00494669
0.00495102
0.00495535
0.00495968
0.00496401
0.00496835
0.00497269
0.00497703
0.00498137
0.00498571
0.00499006
0.0049944
0.00499875
0.0050031
0.00500745
0.00501181
0.00501616
0.00502052
0.00502488
0.00502924
0.00503361
0.00503797
0.00504234
0.00504671
0.00505108
0.00505546
0.00505983
0.00506421
0.00506859
0.00507297
0.00507735
0.00508174
0.00508613
0.00509051
0.0050949
0.0050993
0.00510369
0.00510809
0.00511248
0.00511689
0.00512129
0.00512569
0.0051301
0.0051345
0.00513891
0.00514332
0.00514774
0.00515215
0.00515657
0.00516099
0.00516541
0.00516983
0.00517426
0.00517868
0.00518311
0.00518754
0.00519197
0.00519641
0.00520084
0.00520528
0.00520972
0.00521416
0.0052186
0.00522305
0.00522749
0.00523194
0.0052364
0.00524085
0.0052453
0.00524976
0.00525421
0.00525867
0.00526314
0.00526761
0.00527207
0.00527654
0.00528101
0.00528548
0.00528996
0.00529443
0.00529891
0.00530339
0.00530787
0.00531235
0.00531684
0.00532132
0.00532581
0.00533031
0.0053348
0.00533929
0.00534379
0.00534828
0.00535279
0.00535729
0.00536179
0.0053663
0.0053708
0.00537532
0.00537983
0.00538434
0.00538886
0.00539337
0.00539789
0.00540241
0.00540693
0.00541146
0.00541598
0.00542052
0.00542505
0.00542957
0.00543411
0.00543864
0.00544319
0.00544772
0.00545226
0.00545681
0.00546135
0.0054659
0.00547045
0.00547501
0.00547955
0.00548411
0.00548867
0.00549323
0.00549779
0.00550235
0.00550692
0.00551148
0.00551605
0.00552062
0.00552519
0.00552977
0.00553434
0.00553893
0.00554351
0.00554808
0.00555267
0.00555725
0.00556184
0.00556643
0.00557102
0.00557561
0.00558021
0.00558481
0.00558941
0.005594
0.00559861
0.00560321
0.00560782
0.00561243
0.00561703
0.00562165
0.00562626
0.00563088
0.00563549
0.00564011
0.00564473
0.00564935
0.00565398
0.00565861
0.00566323
0.00566787
0.0056725
0.00567713
0.00568177
0.00568641
0.00569105
0.00569569
0.00570033
0.00570498
0.00570963
0.00571428
0.00571893
0.00572358
0.00572824
0.0057329
0.00573755
0.00574222
0.00574688
0.00575155
0.00575621
0.00576088
0.00576555
0.00577022
0.0057749
0.00577958
0.00578425
0.00578893
0.00579361
0.0057983
0.00580299
0.00580767
0.00581236
0.00581705
0.00582175
0.00582644
0.00583114
0.00583584
0.00584053
0.00584524
0.00584994
0.00585465
0.00585936
0.00586407
0.00586878
0.0058735
0.00587821
0.00588293
0.00588764
0.00589237
0.00589709
0.00590181
0.00590654
0.00591127
0.005916
0.00592074
0.00592547
0.00593021
0.00593495
0.00593969
0.00594443
0.00594918
0.00595392
0.00595867
0.00596342
0.00596817
0.00597293
0.00597768
0.00598244
0.0059872
0.00599196
0.00599673
0.00600149
0.00600626
0.00601103
0.0060158
0.00602057
0.00602534
0.00603012
0.0060349
0.00603968
0.00604446
0.00604924
0.00605403
0.00605882
0.00606361
0.0060684
0.00607319
0.00607799
0.00608278
0.00608759
0.00609239
0.00609719
0.00610199
0.0061068
0.00611161
0.00611642
0.00612123
0.00612604
0.00613086
0.00613568
0.0061405
0.00614532
0.00615014
0.00615497
0.0061598
0.00616463
0.00616946
0.00617429
0.00617913
0.00618397
0.00618881
0.00619365
0.00619849
0.00620334
0.00620818
0.00621303
0.00621788
0.00622273
0.00622759
0.00623244
0.0062373
0.00624216
0.00624702
0.00625189
0.00625675
0.00626162
0.00626649
0.00627136
0.00627623