/*--------------------------------*- C++ -*----------------------------------*\
| =========                 |                                                 |
| \\      /  F ield         | OpenFOAM: The Open Source CFD Toolbox           |
|  \\    /   O peration     | Version:  2206                                  |
|   \\  /    A nd           | Website:  www.openfoam.com                      |
|    \\/     M anipulation  |                                                 |
\*---------------------------------------------------------------------------*/
FoamFile
{
    version     2.0;
    format      ascii;
    arch        "LSB;label=32;scalar=64";
    class       volScalarField;
    location    "20";
    object      p;
}
// * * * * * * * * * * * * * * * * * * * * * * * * * * * * * * * * * * * * * //

dimensions      [0 2 -2 0 0 0 0];

internalField   nonuniform List<scalar> 
50000
(
-2.73076e-08
5.64385e-07
1.03606e-06
4.70877e-07
5.96642e-07
5.13257e-07
4.80458e-07
4.6659e-07
4.34963e-07
4.31395e-07
4.17492e-07
4.17911e-07
4.13979e-07
4.18661e-07
4.21758e-07
4.30922e-07
4.39583e-07
4.53156e-07
4.66741e-07
4.84546e-07
5.02708e-07
5.24584e-07
5.47086e-07
5.72904e-07
5.99566e-07
6.29228e-07
6.59905e-07
6.93327e-07
7.27899e-07
7.65012e-07
8.03379e-07
8.44122e-07
8.86201e-07
9.30522e-07
9.7624e-07
1.02409e-06
1.07339e-06
1.12473e-06
1.17756e-06
1.23235e-06
1.28866e-06
1.34688e-06
1.40663e-06
1.46824e-06
1.5314e-06
1.59637e-06
1.66292e-06
1.73123e-06
1.80113e-06
1.87276e-06
1.94598e-06
2.02092e-06
2.09745e-06
2.17567e-06
2.25549e-06
2.33697e-06
2.42006e-06
2.5048e-06
2.59115e-06
2.67913e-06
2.76872e-06
2.85992e-06
2.95274e-06
3.04716e-06
3.14319e-06
3.24083e-06
3.34006e-06
3.44089e-06
3.54333e-06
3.64734e-06
3.75296e-06
3.86016e-06
3.96896e-06
4.07934e-06
4.19131e-06
4.30485e-06
4.41999e-06
4.53669e-06
4.65499e-06
4.77484e-06
4.89629e-06
5.0193e-06
5.1439e-06
5.27005e-06
5.39779e-06
5.52708e-06
5.65796e-06
5.79039e-06
5.92441e-06
6.05996e-06
6.19711e-06
6.3358e-06
6.47607e-06
6.61789e-06
6.76129e-06
6.90622e-06
7.05274e-06
7.2008e-06
7.35044e-06
7.50161e-06
7.65436e-06
7.80865e-06
7.96451e-06
8.12191e-06
8.28089e-06
8.44139e-06
8.60348e-06
8.7671e-06
8.93229e-06
9.09901e-06
9.26731e-06
9.43713e-06
9.60853e-06
9.78145e-06
9.95596e-06
1.0132e-05
1.03096e-05
1.04887e-05
1.06694e-05
1.08516e-05
1.10354e-05
1.12207e-05
1.14076e-05
1.1596e-05
1.1786e-05
1.19775e-05
1.21706e-05
1.23652e-05
1.25614e-05
1.27591e-05
1.29583e-05
1.31591e-05
1.33615e-05
1.35654e-05
1.37708e-05
1.39778e-05
1.41863e-05
1.43963e-05
1.46079e-05
1.48211e-05
1.50358e-05
1.5252e-05
1.54698e-05
1.56891e-05
1.591e-05
1.61324e-05
1.63563e-05
1.65818e-05
1.68089e-05
1.70374e-05
1.72675e-05
1.74992e-05
1.77324e-05
1.79671e-05
1.82034e-05
1.84412e-05
1.86806e-05
1.89215e-05
1.9164e-05
1.94079e-05
1.96535e-05
1.99005e-05
2.01491e-05
2.03993e-05
2.0651e-05
2.09042e-05
2.1159e-05
2.14153e-05
2.16731e-05
2.19325e-05
2.21934e-05
2.24559e-05
2.27199e-05
2.29854e-05
2.32525e-05
2.35211e-05
2.37913e-05
2.4063e-05
2.43362e-05
2.4611e-05
2.48873e-05
2.51652e-05
2.54446e-05
2.57255e-05
2.6008e-05
2.6292e-05
2.65775e-05
2.68646e-05
2.71533e-05
2.74434e-05
2.77351e-05
2.80283e-05
2.83231e-05
2.86194e-05
2.89173e-05
2.92167e-05
2.95176e-05
2.98201e-05
3.01241e-05
3.04296e-05
3.07367e-05
3.10453e-05
3.13555e-05
3.16672e-05
3.19804e-05
3.22952e-05
3.26115e-05
3.29293e-05
3.32487e-05
3.35696e-05
3.38921e-05
3.42161e-05
3.45416e-05
3.48687e-05
3.51973e-05
3.55274e-05
3.58591e-05
3.61923e-05
3.65271e-05
3.68633e-05
3.72012e-05
3.75405e-05
3.78815e-05
3.82239e-05
3.85679e-05
3.89134e-05
3.92604e-05
3.9609e-05
3.99591e-05
4.03108e-05
4.0664e-05
4.10187e-05
4.1375e-05
4.17328e-05
4.20921e-05
4.2453e-05
4.28154e-05
4.31794e-05
4.35449e-05
4.39119e-05
4.42805e-05
4.46506e-05
4.50222e-05
4.53954e-05
4.57701e-05
4.61463e-05
4.65241e-05
4.69034e-05
4.72843e-05
4.76667e-05
4.80506e-05
4.84361e-05
4.88231e-05
4.92116e-05
4.96017e-05
4.99933e-05
5.03864e-05
5.07811e-05
5.11774e-05
5.15751e-05
5.19744e-05
5.23752e-05
5.27776e-05
5.31815e-05
5.35869e-05
5.39939e-05
5.44024e-05
5.48124e-05
5.5224e-05
5.56371e-05
5.60518e-05
5.6468e-05
5.68857e-05
5.7305e-05
5.77258e-05
5.81481e-05
5.8572e-05
5.89974e-05
5.94243e-05
5.98528e-05
6.02828e-05
6.07143e-05
6.11474e-05
6.15821e-05
6.20182e-05
6.24559e-05
6.28951e-05
6.33359e-05
6.37782e-05
6.4222e-05
6.46674e-05
6.51143e-05
6.55628e-05
6.60127e-05
6.64643e-05
6.69173e-05
6.73719e-05
6.7828e-05
6.82857e-05
6.87449e-05
6.92056e-05
6.96679e-05
7.01317e-05
7.0597e-05
7.10639e-05
7.15323e-05
7.20023e-05
7.24737e-05
7.29468e-05
7.34213e-05
7.38974e-05
7.4375e-05
7.48542e-05
7.53349e-05
7.58171e-05
7.63009e-05
7.67862e-05
7.7273e-05
7.77614e-05
7.82513e-05
7.87428e-05
7.92358e-05
7.97303e-05
8.02263e-05
8.07239e-05
8.1223e-05
8.17237e-05
8.22259e-05
8.27296e-05
8.32349e-05
8.37417e-05
8.425e-05
8.47599e-05
8.52713e-05
8.57843e-05
8.62988e-05
8.68148e-05
8.73323e-05
8.78514e-05
8.8372e-05
8.88942e-05
8.94179e-05
8.99431e-05
9.04699e-05
9.09982e-05
9.1528e-05
9.20594e-05
9.25923e-05
9.31268e-05
9.36628e-05
9.42003e-05
9.47393e-05
9.52799e-05
9.5822e-05
9.63657e-05
9.69109e-05
9.74576e-05
9.80059e-05
9.85557e-05
9.9107e-05
9.96599e-05
0.000100214
0.00010077
0.000101328
0.000101887
0.000102447
0.000103009
0.000103573
0.000104138
0.000104705
0.000105273
0.000105843
0.000106414
0.000106987
0.000107561
0.000108137
0.000108715
0.000109294
0.000109874
0.000110456
0.00011104
0.000111625
0.000112212
0.0001128
0.00011339
0.000113981
0.000114574
0.000115168
0.000115764
0.000116361
0.00011696
0.000117561
0.000118163
0.000118766
0.000119371
0.000119978
0.000120586
0.000121196
0.000121807
0.00012242
0.000123034
0.00012365
0.000124267
0.000124886
0.000125506
0.000126128
0.000126752
0.000127377
0.000128004
0.000128632
0.000129261
0.000129892
0.000130525
0.000131159
0.000131795
0.000132433
0.000133071
0.000133712
0.000134354
0.000134997
0.000135642
0.000136289
0.000136937
0.000137586
0.000138238
0.00013889
0.000139544
0.0001402
0.000140858
0.000141516
0.000142177
0.000142839
0.000143502
0.000144167
0.000144833
0.000145501
0.000146171
0.000146842
0.000147515
0.000148189
0.000148865
0.000149542
0.000150221
0.000150901
0.000151583
0.000152266
0.000152951
0.000153638
0.000154326
0.000155015
0.000155706
0.000156399
0.000157093
0.000157789
0.000158486
0.000159185
0.000159885
0.000160587
0.00016129
0.000161995
0.000162701
0.000163409
0.000164119
0.00016483
0.000165542
0.000166256
0.000166972
0.000167689
0.000168408
0.000169128
0.00016985
0.000170573
0.000171298
0.000172024
0.000172752
0.000173482
0.000174213
0.000174945
0.000175679
0.000176415
0.000177152
0.000177891
0.000178631
0.000179373
0.000180116
0.000180861
0.000181607
0.000182355
0.000183104
0.000183855
0.000184608
0.000185362
0.000186117
0.000186874
0.000187633
0.000188393
0.000189155
0.000189918
0.000190683
0.000191449
0.000192217
0.000192986
0.000193757
0.00019453
0.000195304
0.000196079
0.000196856
0.000197635
0.000198415
0.000199197
0.00019998
0.000200764
0.000201551
0.000202339
0.000203128
0.000203919
0.000204711
0.000205505
0.000206301
0.000207098
0.000207896
0.000208696
0.000209498
0.000210301
0.000211106
0.000211912
0.00021272
0.000213529
0.00021434
0.000215152
0.000215966
0.000216781
0.000217598
0.000218417
0.000219237
0.000220058
0.000220882
0.000221706
0.000222532
0.00022336
0.000224189
0.00022502
0.000225852
0.000226686
0.000227522
0.000228359
0.000229197
0.000230037
0.000230879
0.000231722
0.000232566
0.000233412
0.00023426
0.000235109
0.00023596
0.000236812
0.000237666
0.000238521
0.000239378
0.000240237
0.000241097
0.000241958
0.000242821
0.000243686
0.000244552
0.000245419
0.000246289
0.000247159
0.000248032
0.000248905
0.000249781
0.000250657
0.000251536
0.000252416
0.000253297
0.00025418
0.000255065
0.000255951
0.000256838
0.000257727
0.000258618
0.00025951
0.000260404
0.000261299
0.000262196
0.000263094
0.000263994
0.000264896
0.000265799
0.000266703
0.000267609
0.000268517
0.000269426
0.000270336
0.000271249
0.000272162
0.000273077
0.000273994
0.000274912
0.000275832
0.000276754
0.000277677
0.000278601
0.000279527
0.000280455
0.000281384
0.000282314
0.000283246
0.00028418
0.000285115
0.000286052
0.00028699
0.00028793
0.000288871
0.000289814
0.000290758
0.000291704
0.000292652
0.000293601
0.000294551
0.000295503
0.000296457
0.000297412
0.000298369
0.000299327
0.000300287
0.000301248
0.000302211
0.000303175
0.000304141
0.000305109
0.000306078
0.000307048
0.00030802
0.000308994
0.000309969
0.000310945
0.000311924
0.000312903
0.000313884
0.000314867
0.000315852
0.000316837
0.000317825
0.000318814
0.000319804
0.000320796
0.00032179
0.000322785
0.000323781
0.00032478
0.000325779
0.00032678
0.000327783
0.000328787
0.000329793
0.000330801
0.000331809
0.00033282
0.000333832
0.000334845
0.00033586
0.000336877
0.000337895
0.000338915
0.000339936
0.000340958
0.000341983
0.000343008
0.000344036
0.000345065
0.000346095
0.000347127
0.00034816
0.000349195
0.000350232
0.00035127
0.000352309
0.000353351
0.000354393
0.000355437
0.000356483
0.00035753
0.000358579
0.00035963
0.000360681
0.000361735
0.00036279
0.000363846
0.000364904
0.000365964
0.000367025
0.000368087
0.000369152
0.000370217
0.000371285
0.000372353
0.000373424
0.000374495
0.000375569
0.000376644
0.00037772
0.000378798
0.000379878
0.000380959
0.000382041
0.000383125
0.000384211
0.000385298
0.000386387
0.000387477
0.000388569
0.000389662
0.000390757
0.000391853
0.000392951
0.000394051
0.000395152
0.000396254
0.000397358
0.000398464
0.000399571
0.00040068
0.00040179
0.000402902
0.000404015
0.00040513
0.000406246
0.000407364
0.000408484
0.000409605
0.000410727
0.000411851
0.000412977
0.000414104
0.000415232
0.000416363
0.000417494
0.000418627
0.000419762
0.000420899
0.000422036
0.000423176
0.000424317
0.000425459
0.000426603
0.000427749
0.000428896
0.000430044
0.000431194
0.000432346
0.000433499
0.000434654
0.00043581
0.000436968
0.000438127
0.000439288
0.000440451
0.000441615
0.00044278
0.000443947
0.000445116
0.000446286
0.000447457
0.000448631
0.000449805
0.000450982
0.000452159
0.000453339
0.000454519
0.000455702
0.000456886
0.000458071
0.000459258
0.000460447
0.000461637
0.000462828
0.000464021
0.000465216
0.000466412
0.00046761
0.000468809
0.00047001
0.000471212
0.000472416
0.000473622
0.000474829
0.000476037
0.000477247
0.000478459
0.000479672
0.000480886
0.000482102
0.00048332
0.000484539
0.00048576
0.000486982
0.000488206
0.000489432
0.000490658
0.000491887
0.000493117
0.000494348
0.000495581
0.000496816
0.000498052
0.00049929
0.000500529
0.00050177
0.000503012
0.000504256
0.000505501
0.000506748
0.000507996
0.000509246
0.000510498
0.000511751
0.000513005
0.000514261
0.000515519
0.000516778
0.000518039
0.000519301
0.000520564
0.00052183
0.000523097
0.000524365
0.000525635
0.000526906
0.000528179
0.000529454
0.00053073
0.000532007
0.000533286
0.000534567
0.000535849
0.000537133
0.000538418
0.000539705
0.000540993
0.000542283
0.000543574
0.000544867
0.000546162
0.000547458
0.000548755
0.000550054
0.000551355
0.000552657
0.000553961
0.000555266
0.000556573
0.000557881
0.000559191
0.000560502
0.000561815
0.000563129
0.000564445
0.000565763
0.000567082
0.000568402
0.000569724
0.000571048
0.000572373
0.0005737
0.000575028
0.000576358
0.000577689
0.000579022
0.000580356
0.000581692
0.00058303
0.000584369
0.000585709
0.000587051
0.000588395
0.00058974
0.000591087
0.000592435
0.000593784
0.000595136
0.000596489
0.000597843
0.000599199
0.000600556
0.000601915
0.000603276
0.000604638
0.000606001
0.000607366
0.000608733
0.000610101
0.000611471
0.000612842
0.000614215
0.000615589
0.000616965
0.000618342
0.000619721
0.000621101
0.000622483
0.000623867
0.000625252
0.000626638
0.000628027
0.000629416
0.000630807
0.0006322
0.000633594
0.00063499
0.000636387
0.000637786
0.000639187
0.000640589
0.000641992
0.000643397
0.000644804
0.000646212
0.000647621
0.000649032
0.000650445
0.000651859
0.000653275
0.000654692
0.000656111
0.000657531
0.000658953
0.000660377
0.000661802
0.000663228
0.000664656
0.000666086
0.000667517
0.000668949
0.000670384
0.000671819
0.000673257
0.000674695
0.000676136
0.000677577
0.000679021
0.000680466
0.000681912
0.00068336
0.00068481
0.000686261
0.000687713
0.000689167
0.000690623
0.00069208
0.000693539
0.000694999
0.000696461
0.000697924
0.000699389
0.000700856
0.000702324
0.000703793
0.000705264
0.000706737
0.000708211
0.000709686
0.000711164
0.000712642
0.000714122
0.000715604
0.000717088
0.000718572
0.000720059
0.000721547
0.000723036
0.000724527
0.00072602
0.000727514
0.000729009
0.000730506
0.000732005
0.000733505
0.000735007
0.00073651
0.000738015
0.000739521
0.000741029
0.000742538
0.000744049
0.000745562
0.000747076
0.000748591
0.000750108
0.000751627
0.000753147
0.000754669
0.000756192
0.000757717
0.000759243
0.000760771
0.0007623
0.000763831
0.000765364
0.000766898
0.000768433
0.00076997
0.000771509
0.000773049
0.00077459
0.000776134
0.000777678
0.000779225
0.000780772
0.000782322
0.000783873
0.000785425
0.000786979
0.000788534
0.000790091
0.00079165
0.00079321
0.000794771
0.000796335
0.000797899
0.000799465
0.000801033
0.000802602
0.000804173
0.000805746
0.000807319
0.000808895
0.000810472
0.00081205
0.00081363
0.000815212
0.000816795
0.00081838
0.000819966
0.000821554
0.000823143
0.000824734
0.000826326
0.00082792
0.000829515
0.000831112
0.00083271
0.00083431
0.000835912
0.000837515
0.00083912
0.000840726
0.000842333
0.000843943
0.000845553
0.000847166
0.000848779
0.000850395
0.000852012
0.00085363
0.00085525
0.000856871
0.000858494
0.000860119
0.000861745
0.000863373
0.000865002
0.000866632
0.000868265
0.000869898
0.000871534
0.000873171
0.000874809
0.000876449
0.00087809
0.000879733
0.000881378
0.000883024
0.000884671
0.00088632
0.000887971
0.000889623
0.000891277
0.000892932
0.000894589
0.000896247
0.000897907
0.000899569
0.000901232
0.000902896
0.000904562
0.00090623
0.000907899
0.000909569
0.000911241
0.000912915
0.00091459
0.000916267
0.000917945
0.000919625
0.000921306
0.000922989
0.000924674
0.00092636
0.000928047
0.000929736
0.000931427
0.000933119
0.000934813
0.000936508
0.000938204
0.000939903
0.000941602
0.000943304
0.000945007
0.000946711
0.000948417
0.000950124
0.000951833
0.000953544
0.000955256
0.00095697
0.000958685
0.000960401
0.00096212
0.000963839
0.000965561
0.000967283
0.000969008
0.000970734
0.000972461
0.00097419
0.00097592
0.000977653
0.000979386
0.000981121
0.000982858
0.000984596
0.000986336
0.000988077
0.00098982
0.000991564
0.00099331
0.000995057
0.000996806
0.000998557
0.00100031
0.00100206
0.00100382
0.00100557
0.00100733
0.00100909
0.00101085
0.00101262
0.00101438
0.00101615
0.00101791
0.00101968
0.00102145
0.00102322
0.001025
0.00102677
0.00102855
0.00103033
0.00103211
0.00103389
0.00103567
0.00103745
0.00103924
0.00104103
0.00104282
0.00104461
0.0010464
0.00104819
0.00104999
0.00105178
0.00105358
0.00105538
0.00105718
0.00105899
0.00106079
0.0010626
0.0010644
0.00106621
0.00106802
0.00106983
0.00107165
0.00107346
0.00107528
0.0010771
0.00107892
0.00108074
0.00108256
0.00108438
0.00108621
0.00108804
0.00108987
0.0010917
0.00109353
0.00109536
0.0010972
0.00109903
0.00110087
0.00110271
0.00110455
0.00110639
0.00110824
0.00111008
0.00111193
0.00111378
0.00111563
0.00111748
0.00111933
0.00112119
0.00112305
0.0011249
0.00112676
0.00112862
0.00113049
0.00113235
0.00113422
0.00113608
0.00113795
0.00113982
0.00114169
0.00114357
0.00114544
0.00114732
0.0011492
0.00115108
0.00115296
0.00115484
0.00115672
0.00115861
0.0011605
0.00116238
0.00116427
0.00116617
0.00116806
0.00116995
0.00117185
0.00117375
0.00117565
0.00117755
0.00117945
0.00118135
0.00118326
0.00118517
0.00118708
0.00118899
0.0011909
0.00119281
0.00119473
0.00119664
0.00119856
0.00120048
0.0012024
0.00120432
0.00120625
0.00120817
0.0012101
0.00121203
0.00121396
0.00121589
0.00121782
0.00121976
0.00122169
0.00122363
0.00122557
0.00122751
0.00122945
0.0012314
0.00123334
0.00123529
0.00123724
0.00123919
0.00124114
0.00124309
0.00124505
0.001247
0.00124896
0.00125092
0.00125288
0.00125484
0.00125681
0.00125877
0.00126074
0.00126271
0.00126468
0.00126665
0.00126862
0.0012706
0.00127257
0.00127455
0.00127653
0.00127851
0.00128049
0.00128248
0.00128446
0.00128645
0.00128844
0.00129043
0.00129242
0.00129441
0.00129641
0.0012984
0.0013004
0.0013024
0.0013044
0.0013064
0.00130841
0.00131041
0.00131242
0.00131443
0.00131644
0.00131845
0.00132046
0.00132248
0.00132449
0.00132651
0.00132853
0.00133055
0.00133257
0.0013346
0.00133662
0.00133865
0.00134068
0.00134271
0.00134474
0.00134677
0.0013488
0.00135084
0.00135288
0.00135492
0.00135696
0.001359
0.00136104
0.00136309
0.00136514
0.00136718
0.00136923
0.00137129
0.00137334
0.00137539
0.00137745
0.00137951
0.00138157
0.00138363
0.00138569
0.00138775
0.00138982
0.00139188
0.00139395
0.00139602
0.00139809
0.00140017
0.00140224
0.00140432
0.00140639
0.00140847
0.00141055
0.00141264
0.00141472
0.0014168
0.00141889
0.00142098
0.00142307
0.00142516
0.00142725
0.00142935
0.00143144
0.00143354
0.00143564
0.00143774
0.00143984
0.00144195
0.00144405
0.00144616
0.00144827
0.00145038
0.00145249
0.0014546
0.00145671
0.00145883
0.00146095
0.00146307
0.00146519
0.00146731
0.00146943
0.00147156
0.00147368
0.00147581
0.00147794
0.00148007
0.00148221
0.00148434
0.00148648
0.00148861
0.00149075
0.00149289
0.00149503
0.00149718
0.00149932
0.00150147
0.00150362
0.00150577
0.00150792
0.00151007
0.00151223
0.00151438
0.00151654
0.0015187
0.00152086
0.00152302
0.00152518
0.00152735
0.00152951
0.00153168
0.00153385
0.00153602
0.0015382
0.00154037
0.00154255
0.00154472
0.0015469
0.00154908
0.00155126
0.00155345
0.00155563
0.00155782
0.00156001
0.0015622
0.00156439
0.00156658
0.00156877
0.00157097
0.00157317
0.00157537
0.00157757
0.00157977
0.00158197
0.00158418
0.00158638
0.00158859
0.0015908
0.00159301
0.00159522
0.00159744
0.00159965
0.00160187
0.00160409
0.00160631
0.00160853
0.00161076
0.00161298
0.00161521
0.00161743
0.00161966
0.0016219
0.00162413
0.00162636
0.0016286
0.00163083
0.00163307
0.00163531
0.00163756
0.0016398
0.00164204
0.00164429
0.00164654
0.00164879
0.00165104
0.00165329
0.00165554
0.0016578
0.00166006
0.00166232
0.00166458
0.00166684
0.0016691
0.00167137
0.00167363
0.0016759
0.00167817
0.00168044
0.00168271
0.00168499
0.00168726
0.00168954
0.00169182
0.0016941
0.00169638
0.00169866
0.00170095
0.00170323
0.00170552
0.00170781
0.0017101
0.00171239
0.00171469
0.00171698
0.00171928
0.00172158
0.00172388
0.00172618
0.00172848
0.00173079
0.0017331
0.0017354
0.00173771
0.00174002
0.00174234
0.00174465
0.00174697
0.00174928
0.0017516
0.00175392
0.00175624
0.00175857
0.00176089
0.00176322
0.00176554
0.00176787
0.0017702
0.00177254
0.00177487
0.00177721
0.00177954
0.00178188
0.00178422
0.00178656
0.00178891
0.00179125
0.0017936
0.00179594
0.00179829
0.00180064
0.001803
0.00180535
0.00180771
0.00181006
0.00181242
0.00181478
0.00181714
0.00181951
0.00182187
0.00182424
0.0018266
0.00182897
0.00183134
0.00183372
0.00183609
0.00183847
0.00184084
0.00184322
0.0018456
0.00184798
0.00185037
0.00185275
0.00185514
0.00185752
0.00185991
0.0018623
0.0018647
0.00186709
0.00186948
0.00187188
0.00187428
0.00187668
0.00187908
0.00188148
0.00188389
0.00188629
0.0018887
0.00189111
0.00189352
0.00189593
0.00189835
0.00190076
0.00190318
0.0019056
0.00190802
0.00191044
0.00191286
0.00191529
0.00191771
0.00192014
0.00192257
0.001925
0.00192743
0.00192987
0.0019323
0.00193474
0.00193718
0.00193962
0.00194206
0.0019445
0.00194695
0.00194939
0.00195184
0.00195429
0.00195674
0.00195919
0.00196164
0.0019641
0.00196656
0.00196901
0.00197147
0.00197394
0.0019764
0.00197886
0.00198133
0.0019838
0.00198626
0.00198874
0.00199121
0.00199368
0.00199616
0.00199863
0.00200111
0.00200359
0.00200607
0.00200855
0.00201104
0.00201353
0.00201601
0.0020185
0.00202099
0.00202348
0.00202598
0.00202847
0.00203097
0.00203347
0.00203597
0.00203847
0.00204097
0.00204348
0.00204598
0.00204849
0.002051
0.00205351
0.00205602
0.00205853
0.00206105
0.00206357
0.00206608
0.0020686
0.00207112
0.00207365
0.00207617
0.0020787
0.00208122
0.00208375
0.00208628
0.00208882
0.00209135
0.00209388
0.00209642
0.00209896
0.0021015
0.00210404
0.00210658
0.00210913
0.00211167
0.00211422
0.00211677
0.00211932
0.00212187
0.00212442
0.00212698
0.00212954
0.00213209
0.00213465
0.00213721
0.00213978
0.00214234
0.00214491
0.00214747
0.00215004
0.00215261
0.00215519
0.00215776
0.00216033
0.00216291
0.00216549
0.00216807
0.00217065
0.00217323
0.00217582
0.0021784
0.00218099
0.00218358
0.00218617
0.00218876
0.00219135
0.00219395
0.00219654
0.00219914
0.00220174
0.00220434
0.00220694
0.00220955
0.00221215
0.00221476
0.00221737
0.00221998
0.00222259
0.00222521
0.00222782
0.00223044
0.00223306
0.00223567
0.0022383
0.00224092
0.00224354
0.00224617
0.00224879
0.00225142
0.00225405
0.00225669
0.00225932
0.00226195
0.00226459
0.00226723
0.00226987
0.00227251
0.00227515
0.00227779
0.00228044
0.00228309
0.00228574
0.00228839
0.00229104
0.00229369
0.00229635
0.002299
0.00230166
0.00230432
0.00230698
0.00230964
0.00231231
0.00231497
0.00231764
0.00232031
0.00232298
0.00232565
0.00232832
0.002331
0.00233367
0.00233635
0.00233903
0.00234171
0.00234439
0.00234708
0.00234976
0.00235245
0.00235514
0.00235783
0.00236052
0.00236321
0.00236591
0.00236861
0.0023713
0.002374
0.0023767
0.00237941
0.00238211
0.00238482
0.00238752
0.00239023
0.00239294
0.00239565
0.00239837
0.00240108
0.0024038
0.00240651
0.00240923
0.00241195
0.00241468
0.0024174
0.00242013
0.00242285
0.00242558
0.00242831
0.00243104
0.00243378
0.00243651
0.00243925
0.00244198
0.00244472
0.00244746
0.00245021
0.00245295
0.0024557
0.00245844
0.00246119
0.00246394
0.00246669
0.00246945
0.0024722
0.00247496
0.00247771
0.00248047
0.00248323
0.002486
0.00248876
0.00249152
0.00249429
0.00249706
0.00249983
0.0025026
0.00250537
0.00250815
0.00251093
0.0025137
0.00251648
0.00251926
0.00252204
0.00252483
0.00252761
0.0025304
0.00253319
0.00253598
0.00253877
0.00254156
0.00254436
0.00254715
0.00254995
0.00255275
0.00255555
0.00255835
0.00256116
0.00256396
0.00256677
0.00256958
0.00257239
0.0025752
0.00257801
0.00258083
0.00258364
0.00258646
0.00258928
0.0025921
0.00259492
0.00259775
0.00260057
0.0026034
0.00260623
0.00260906
0.00261189
0.00261472
0.00261755
0.00262039
0.00262323
0.00262607
0.00262891
0.00263175
0.00263459
0.00263744
0.00264028
0.00264313
0.00264598
0.00264883
0.00265169
0.00265454
0.0026574
0.00266025
0.00266311
0.00266597
0.00266884
0.0026717
0.00267456
0.00267743
0.0026803
0.00268317
0.00268604
0.00268891
0.00269179
0.00269466
0.00269754
0.00270042
0.0027033
0.00270618
0.00270907
0.00271195
0.00271484
0.00271773
0.00272062
0.00272351
0.0027264
0.00272929
0.00273219
0.00273509
0.00273799
0.00274089
0.00274379
0.00274669
0.0027496
0.0027525
0.00275541
0.00275832
0.00276123
0.00276414
0.00276706
0.00276998
0.00277289
0.00277581
0.00277873
0.00278165
0.00278458
0.0027875
0.00279043
0.00279336
0.00279629
0.00279922
0.00280215
0.00280508
0.00280802
0.00281096
0.0028139
0.00281684
0.00281978
0.00282272
0.00282567
0.00282861
0.00283156
0.00283451
0.00283746
0.00284041
0.00284337
0.00284632
0.00284928
0.00285224
0.0028552
0.00285816
0.00286113
0.00286409
0.00286706
0.00287003
0.002873
0.00287597
0.00287894
0.00288191
0.00288489
0.00288787
0.00289084
0.00289382
0.00289681
0.00289979
0.00290277
0.00290576
0.00290875
0.00291174
0.00291473
0.00291772
0.00292072
0.00292371
0.00292671
0.00292971
0.00293271
0.00293571
0.00293871
0.00294172
0.00294472
0.00294773
0.00295074
0.00295375
0.00295677
0.00295978
0.0029628
0.00296581
0.00296883
0.00297185
0.00297487
0.0029779
0.00298092
0.00298395
0.00298698
0.00299
0.00299304
0.00299607
0.0029991
0.00300214
0.00300517
0.00300821
0.00301125
0.00301429
0.00301734
0.00302038
0.00302343
0.00302648
0.00302953
0.00303258
0.00303563
0.00303868
0.00304174
0.0030448
0.00304785
0.00305092
0.00305398
0.00305704
0.0030601
0.00306317
0.00306624
0.00306931
0.00307238
0.00307545
0.00307853
0.0030816
0.00308468
0.00308776
0.00309084
0.00309392
0.003097
0.00310009
0.00310317
0.00310626
0.00310935
0.00311244
0.00311553
0.00311863
0.00312172
0.00312482
0.00312792
0.00313102
0.00313412
0.00313722
0.00314033
0.00314343
0.00314654
0.00314965
0.00315276
0.00315587
0.00315899
0.0031621
0.00316522
0.00316834
0.00317146
0.00317458
0.0031777
0.00318083
0.00318395
0.00318708
0.00319021
0.00319334
0.00319647
0.00319961
0.00320274
0.00320588
0.00320902
0.00321216
0.0032153
0.00321844
0.00322159
0.00322473
0.00322788
0.00323103
0.00323418
0.00323733
0.00324049
0.00324364
0.0032468
0.00324996
0.00325312
0.00325628
0.00325944
0.00326261
0.00326577
0.00326894
0.00327211
0.00327528
0.00327845
0.00328162
0.0032848
0.00328798
0.00329116
0.00329433
0.00329752
0.0033007
0.00330388
0.00330707
0.00331026
0.00331345
0.00331664
0.00331983
0.00332302
0.00332622
0.00332941
0.00333261
0.00333581
0.00333901
0.00334222
0.00334542
0.00334863
0.00335184
0.00335504
0.00335825
0.00336147
0.00336468
0.0033679
0.00337111
0.00337433
0.00337755
0.00338077
0.00338399
0.00338722
0.00339045
0.00339367
0.0033969
0.00340013
0.00340336
0.0034066
0.00340983
0.00341307
0.00341631
0.00341955
0.00342279
0.00342603
0.00342928
0.00343252
0.00343577
0.00343902
0.00344227
0.00344552
0.00344877
0.00345203
0.00345529
0.00345854
0.0034618
0.00346507
0.00346833
0.00347159
0.00347486
0.00347813
0.00348139
0.00348467
0.00348794
0.00349121
0.00349449
0.00349776
0.00350104
0.00350432
0.0035076
0.00351088
0.00351417
0.00351745
0.00352074
0.00352403
0.00352732
0.00353061
0.00353391
0.0035372
0.0035405
0.0035438
0.0035471
0.0035504
0.0035537
0.003557
0.00356031
0.00356362
0.00356693
0.00357024
0.00357355
0.00357686
0.00358018
0.00358349
0.00358681
0.00359013
0.00359345
0.00359677
0.0036001
0.00360342
0.00360675
0.00361008
0.00361341
0.00361674
0.00362008
0.00362341
0.00362675
0.00363009
0.00363343
0.00363677
0.00364011
0.00364345
0.0036468
0.00365015
0.0036535
0.00365685
0.0036602
0.00366355
0.00366691
0.00367026
0.00367362
0.00367698
0.00368034
0.0036837
0.00368707
0.00369043
0.0036938
0.00369717
0.00370054
0.00370391
0.00370728
0.00371066
0.00371404
0.00371741
0.00372079
0.00372417
0.00372756
0.00373094
0.00373433
0.00373771
0.0037411
0.00374449
0.00374788
0.00375128
0.00375467
0.00375807
0.00376147
0.00376487
0.00376827
0.00377167
0.00377507
0.00377848
0.00378189
0.0037853
0.00378871
0.00379212
0.00379553
0.00379894
0.00380236
0.00380578
0.0038092
0.00381262
0.00381604
0.00381947
0.00382289
0.00382632
0.00382975
0.00383318
0.00383661
0.00384004
0.00384348
0.00384691
0.00385035
0.00385379
0.00385723
0.00386067
0.00386412
0.00386756
0.00387101
0.00387446
0.00387791
0.00388136
0.00388481
0.00388827
0.00389172
0.00389518
0.00389864
0.0039021
0.00390557
0.00390903
0.00391249
0.00391596
0.00391943
0.0039229
0.00392637
0.00392984
0.00393332
0.0039368
0.00394027
0.00394375
0.00394723
0.00395072
0.0039542
0.00395769
0.00396117
0.00396466
0.00396815
0.00397164
0.00397514
0.00397863
0.00398213
0.00398562
0.00398912
0.00399262
0.00399613
0.00399963
0.00400314
0.00400664
0.00401015
0.00401366
0.00401717
0.00402069
0.0040242
0.00402772
0.00403123
0.00403475
0.00403827
0.0040418
0.00404532
0.00404885
0.00405237
0.0040559
0.00405943
0.00406296
0.00406649
0.00407003
0.00407357
0.0040771
0.00408064
0.00408418
0.00408773
0.00409127
0.00409481
0.00409836
0.00410191
0.00410546
0.00410901
0.00411256
0.00411612
0.00411967
0.00412323
0.00412679
0.00413035
0.00413391
0.00413748
0.00414104
0.00414461
0.00414818
0.00415175
0.00415532
0.00415889
0.00416247
0.00416604
0.00416962
0.0041732
0.00417678
0.00418036
0.00418395
0.00418753
0.00419112
0.00419471
0.0041983
0.00420189
0.00420548
0.00420907
0.00421267
0.00421627
0.00421987
0.00422347
0.00422707
0.00423067
0.00423428
0.00423789
0.00424149
0.0042451
0.00424871
0.00425233
0.00425594
0.00425956
0.00426318
0.00426679
0.00427042
0.00427404
0.00427766
0.00428129
0.00428491
0.00428854
0.00429217
0.0042958
0.00429943
0.00430307
0.0043067
0.00431034
0.00431398
0.00431762
0.00432126
0.00432491
0.00432855
0.0043322
0.00433585
0.0043395
0.00434315
0.0043468
0.00435046
0.00435411
0.00435777
0.00436143
0.00436509
0.00436875
0.00437241
0.00437608
0.00437975
0.00438341
0.00438708
0.00439075
0.00439443
0.0043981
0.00440178
0.00440545
0.00440913
0.00441281
0.0044165
0.00442018
0.00442386
0.00442755
0.00443124
0.00443493
0.00443862
0.00444231
0.00444601
0.0044497
0.0044534
0.0044571
0.0044608
0.0044645
0.0044682
0.00447191
0.00447562
0.00447932
0.00448303
0.00448674
0.00449046
0.00449417
0.00449789
0.0045016
0.00450532
0.00450904
0.00451277
0.00451649
0.00452021
0.00452394
0.00452767
0.0045314
0.00453513
0.00453886
0.0045426
0.00454633
0.00455007
0.00455381
0.00455755
0.00456129
0.00456503
0.00456878
0.00457252
0.00457627
0.00458002
0.00458377
0.00458753
0.00459128
0.00459503
0.00459879
0.00460255
0.00460631
0.00461007
0.00461384
0.0046176
0.00462137
0.00462514
0.0046289
0.00463268
0.00463645
0.00464022
0.004644
0.00464778
0.00465155
0.00465533
0.00465912
0.0046629
0.00466668
0.00467047
0.00467426
0.00467805
0.00468184
0.00468563
0.00468943
0.00469322
0.00469702
0.00470082
0.00470462
0.00470842
0.00471222
0.00471603
0.00471983
0.00472364
0.00472745
0.00473126
0.00473507
0.00473889
0.0047427
0.00474652
0.00475034
0.00475416
0.00475798
0.0047618
0.00476563
0.00476945
0.00477328
0.00477711
0.00478094
0.00478478
0.00478861
0.00479244
0.00479628
0.00480012
0.00480396
0.0048078
0.00481165
0.00481549
0.00481934
0.00482318
0.00482703
0.00483088
0.00483474
0.00483859
0.00484245
0.0048463
0.00485016
0.00485402
0.00485788
0.00486175
0.00486561
0.00486948
0.00487334
0.00487721
0.00488108
0.00488496
0.00488883
0.00489271
0.00489658
0.00490046
0.00490434
0.00490822
0.00491211
0.00491599
0.00491988
0.00492376
0.00492765
0.00493154
0.00493544
0.00493933
0.00494323
0.00494712
0.00495102
0.00495492
0.00495882
0.00496273
0.00496663
0.00497054
0.00497444
0.00497835
0.00498226
0.00498618
0.00499009
0.00499401
0.00499792
0.00500184
0.00500576
0.00500968
0.00501361
0.00501753
0.00502146
0.00502538
0.00502931
0.00503324
0.00503718
0.00504111
0.00504505
0.00504898
0.00505292
0.00505686
0.0050608
0.00506474
0.00506869