/*--------------------------------*- C++ -*----------------------------------*\
| =========                 |                                                 |
| \\      /  F ield         | OpenFOAM: The Open Source CFD Toolbox           |
|  \\    /   O peration     | Version:  2206                                  |
|   \\  /    A nd           | Website:  www.openfoam.com                      |
|    \\/     M anipulation  |                                                 |
\*---------------------------------------------------------------------------*/
FoamFile
{
    version     2.0;
    format      ascii;
    arch        "LSB;label=32;scalar=64";
    class       surfaceScalarField;
    location    "20";
    object      phi;
}
// * * * * * * * * * * * * * * * * * * * * * * * * * * * * * * * * * * * * * //

dimensions      [0 3 -1 0 0 0 0];

oriented        oriented;

internalField   nonuniform List<scalar> 
94990
(
-6.84703e-24
-2.37675e-22
-6.6749e-24
-8.99833e-23
5.19862e-23
5.38358e-23
-1.17246e-23
-1.59665e-23
3.79729e-23
5.75883e-23
1.00244e-23
-3.86537e-23
2.90424e-23
4.91761e-23
1.13964e-23
-3.51302e-23
2.13963e-23
4.13915e-23
6.37412e-24
-2.80343e-23
1.40789e-23
3.41867e-23
-1.99771e-25
-2.22087e-23
5.40543e-24
2.97378e-23
-8.35109e-24
-1.77221e-23
-4.61615e-24
2.65747e-23
-1.79605e-23
-1.41296e-23
-1.59471e-23
2.43e-23
-2.90192e-23
-1.11623e-23
-2.8536e-23
2.26574e-23
-4.14895e-23
-8.64623e-24
-4.23667e-23
2.14742e-23
-5.53332e-23
-6.47142e-24
-5.74389e-23
2.0632e-23
-7.05208e-23
-4.56031e-24
-7.37545e-23
2.00469e-23
-8.70302e-23
-2.85481e-24
-9.13151e-23
1.96583e-23
-1.04845e-22
-1.31075e-24
-1.10122e-22
1.94222e-23
-1.23955e-22
1.05371e-25
-1.30175e-22
1.93063e-23
-1.44352e-22
1.4189e-24
-1.51478e-22
1.92871e-23
-1.66031e-22
2.64904e-24
-1.74031e-22
1.93467e-23
-1.88988e-22
3.81044e-24
-1.97835e-22
1.94719e-23
-2.1322e-22
4.91444e-24
-2.22893e-22
1.96522e-23
-2.38726e-22
5.97e-24
-2.49206e-22
1.98793e-23
-2.65505e-22
6.98432e-24
-2.76775e-22
2.01464e-23
-2.93555e-22
7.96323e-24
-3.05602e-22
2.04481e-23
-3.22876e-22
8.91153e-24
-3.35686e-22
2.07798e-23
-3.53466e-22
9.83322e-24
-3.6703e-22
2.11376e-23
-3.85326e-22
1.07317e-23
-3.99634e-22
2.15183e-23
-4.18456e-22
1.16097e-23
-4.33499e-22
2.19192e-23
-4.52854e-22
1.24696e-23
-4.68625e-22
2.23379e-23
-4.88522e-22
1.33136e-23
-5.05014e-22
2.27726e-23
-5.25459e-22
1.41432e-23
-5.42667e-22
2.32216e-23
-5.63665e-22
1.496e-23
-5.81584e-22
2.36833e-23
-6.03141e-22
1.57652e-23
-6.21765e-22
2.41567e-23
-6.43888e-22
1.656e-23
-6.63212e-22
2.46407e-23
-6.85904e-22
1.73453e-23
-7.05926e-22
2.51342e-23
-7.29191e-22
1.81219e-23
-7.49906e-22
2.56365e-23
-7.73749e-22
1.88906e-23
-7.95155e-22
2.61468e-23
-8.19579e-22
1.9652e-23
-8.41671e-22
2.66646e-23
-8.6668e-22
2.04067e-23
-8.89457e-22
2.71893e-23
-9.15053e-22
2.11553e-23
-9.38512e-22
2.77203e-23
-9.64699e-22
2.18981e-23
-9.88837e-22
2.82571e-23
-1.01562e-21
2.26357e-23
-1.04043e-21
2.87993e-23
-1.06781e-21
2.33684e-23
-1.0933e-21
2.93466e-23
-1.12127e-21
2.40966e-23
-1.14744e-21
2.98986e-23
-1.17601e-21
2.48205e-23
-1.20285e-21
3.04549e-23
-1.23203e-21
2.55405e-23
-1.25953e-21
3.10152e-23
-1.28931e-21
2.62569e-23
-1.31749e-21
3.15793e-23
-1.34788e-21
2.69699e-23
-1.37672e-21
3.2147e-23
-1.40771e-21
2.76797e-23
-1.43722e-21
3.27179e-23
-1.46883e-21
2.83866e-23
-1.499e-21
3.32919e-23
-1.53121e-21
2.90907e-23
-1.56205e-21
3.38687e-23
-1.59488e-21
2.97922e-23
-1.62637e-21
3.44482e-23
-1.65982e-21
3.04913e-23
-1.69197e-21
3.50303e-23
-1.72603e-21
3.11881e-23
-1.75885e-21
3.56147e-23
-1.79353e-21
3.18827e-23
-1.827e-21
3.62013e-23
-1.8623e-21
3.25754e-23
-1.89643e-21
3.679e-23
-1.93234e-21
3.32662e-23
-1.96713e-21
3.73806e-23
-2.00366e-21
3.39552e-23
-2.03911e-21
3.79731e-23
-2.07626e-21
3.46425e-23
-2.11237e-21
3.85674e-23
-2.15014e-21
3.53282e-23
-2.1869e-21
3.91632e-23
-2.2253e-21
3.60124e-23
-2.26271e-21
3.97607e-23
-2.30173e-21
3.66952e-23
-2.3398e-21
4.03596e-23
-2.37944e-21
3.73767e-23
-2.41816e-21
4.09599e-23
-2.45843e-21
3.80569e-23
-2.4978e-21
4.15616e-23
-2.53869e-21
3.87358e-23
-2.57872e-21
4.21645e-23
-2.62024e-21
3.94136e-23
-2.66092e-21
4.27687e-23
-2.70306e-21
4.00903e-23
-2.7444e-21
4.33739e-23
-2.78716e-21
4.0766e-23
-2.82915e-21
4.39803e-23
-2.87254e-21
4.14407e-23
-2.91518e-21
4.45877e-23
-2.9592e-21
4.21144e-23
-3.00249e-21
4.51961e-23
-3.04714e-21
4.27871e-23
-3.09108e-21
4.58055e-23
-3.13636e-21
4.34591e-23
-3.18095e-21
4.64158e-23
-3.22685e-21
4.41301e-23
-3.27209e-21
4.70269e-23
-3.31863e-21
4.48004e-23
-3.36452e-21
4.76389e-23
-3.41168e-21
4.54699e-23
-3.45822e-21
4.82517e-23
-3.50601e-21
4.61387e-23
-3.55321e-21
4.88652e-23
-3.60163e-21
4.68067e-23
-3.64947e-21
4.94795e-23
-3.69852e-21
4.74741e-23
-3.74701e-21
5.00945e-23
-3.79669e-21
4.81408e-23
-3.84583e-21
5.07102e-23
-3.89615e-21
4.88069e-23
-3.94593e-21
5.13266e-23
-3.99688e-21
4.94725e-23
-4.04731e-21
5.19435e-23
-4.09889e-21
5.01374e-23
-4.14997e-21
5.25611e-23
-4.20218e-21
5.08017e-23
-4.25391e-21
5.31793e-23
-4.30675e-21
5.14656e-23
-4.35913e-21
5.3798e-23
-4.4126e-21
5.21289e-23
-4.46563e-21
5.44172e-23
-4.51974e-21
5.27917e-23
-4.57341e-21
5.5037e-23
-4.62815e-21
5.3454e-23
-4.68247e-21
5.56572e-23
-4.73784e-21
5.41159e-23
-4.7928e-21
5.6278e-23
-4.84881e-21
5.47773e-23
-4.90442e-21
5.68992e-23
-4.96107e-21
5.54383e-23
-5.01732e-21
5.75208e-23
-5.0746e-21
5.60989e-23
-5.1315e-21
5.81429e-23
-5.18941e-21
5.67591e-23
-5.24696e-21
5.87654e-23
-5.30551e-21
5.74189e-23
-5.3637e-21
5.93883e-23
-5.42288e-21
5.80784e-23
-5.48172e-21
6.00116e-23
-5.54154e-21
5.87374e-23
-5.60103e-21
6.06352e-23
-5.66148e-21
5.93962e-23
-5.72161e-21
6.12592e-23
-5.78269e-21
6.00546e-23
-5.84347e-21
6.18836e-23
-5.90519e-21
6.07127e-23
-5.96661e-21
6.25083e-23
-6.02897e-21
6.13704e-23
-6.09104e-21
6.31333e-23
-6.15403e-21
6.20279e-23
-6.21674e-21
6.37586e-23
-6.28037e-21
6.26851e-23
-6.34373e-21
6.43842e-23
-6.40799e-21
6.3342e-23
-6.47199e-21
6.50101e-23
-6.53689e-21
6.39986e-23
-6.60154e-21
6.56363e-23
-6.66708e-21
6.4655e-23
-6.73237e-21
6.62627e-23
-6.79854e-21
6.53111e-23
-6.86447e-21
6.68894e-23
-6.93128e-21
6.59669e-23
-6.99786e-21
6.75164e-23
-7.06531e-21
6.66226e-23
-7.13253e-21
6.81436e-23
-7.20062e-21
6.7278e-23
-7.26848e-21
6.87711e-23
-7.33721e-21
6.79331e-23
-7.40572e-21
6.93987e-23
-7.47507e-21
6.85881e-23
-7.54423e-21
7.00266e-23
-7.61422e-21
6.92428e-23
-7.68402e-21
7.06548e-23
-7.75466e-21
6.98974e-23
-7.8251e-21
7.12831e-23
-7.89637e-21
7.05517e-23
-7.96746e-21
7.19116e-23
-8.03936e-21
7.12059e-23
-8.11109e-21
7.25403e-23
-8.18364e-21
7.18599e-23
-8.25601e-21
7.31692e-23
-8.32919e-21
7.25137e-23
-8.40221e-21
7.37983e-23
-8.47603e-21
7.31673e-23
-8.54969e-21
7.44276e-23
-8.62415e-21
7.38208e-23
-8.69845e-21
7.5057e-23
-8.77355e-21
7.44741e-23
-8.8485e-21
7.56866e-23
-8.92423e-21
7.51272e-23
-8.99982e-21
7.63164e-23
-9.07619e-21
7.57802e-23
-9.15243e-21
7.69463e-23
-9.22944e-21
7.6433e-23
-9.30631e-21
7.75764e-23
-9.38396e-21
7.70857e-23
-9.46148e-21
7.82067e-23
-9.53977e-21
7.77383e-23
-9.61793e-21
7.8837e-23
-9.69685e-21
7.83907e-23
-9.77566e-21
7.94676e-23
-9.85522e-21
7.9043e-23
-9.93467e-21
8.00982e-23
-1.00149e-20
7.96951e-23
-1.0095e-20
8.0729e-23
-1.01758e-20
8.03471e-23
-1.02565e-20
8.13599e-23
-1.0338e-20
8.0999e-23
-1.04194e-20
8.1991e-23
-1.05015e-20
8.16508e-23
-1.05835e-20
8.26221e-23
-1.06663e-20
8.23025e-23
-1.0749e-20
8.32534e-23
-1.08323e-20
8.2954e-23
-1.09157e-20
8.38848e-23
-1.09997e-20
8.36055e-23
-1.10836e-20
8.45163e-23
-1.11683e-20
8.42568e-23
-1.12529e-20
8.51479e-23
-1.13382e-20
8.49081e-23
-1.14234e-20
8.57797e-23
-1.15094e-20
8.55592e-23
-1.15953e-20
8.64115e-23
-1.16819e-20
8.62102e-23
-1.17684e-20
8.70434e-23
-1.18556e-20
8.68612e-23
-1.19428e-20
8.76755e-23
-1.20306e-20
8.7512e-23
-1.21184e-20
8.83076e-23
-1.22069e-20
8.81628e-23
-1.22954e-20
8.89398e-23
-1.23845e-20
8.88134e-23
-1.24736e-20
8.95721e-23
-1.25634e-20
8.9464e-23
-1.26531e-20
9.02045e-23
-1.27436e-20
9.01145e-23
-1.28339e-20
9.0837e-23
-1.2925e-20
9.07649e-23
-1.3016e-20
9.14696e-23
-1.31077e-20
9.14152e-23
-1.31994e-20
9.21023e-23
-1.32917e-20
9.20655e-23
-1.3384e-20
9.2735e-23
-1.3477e-20
9.27156e-23
-1.35699e-20
9.33678e-23
-1.36636e-20
9.33657e-23
-1.37571e-20
9.40007e-23
-1.38514e-20
9.40158e-23
-1.39456e-20
9.46337e-23
-1.40405e-20
9.46657e-23
-1.41354e-20
9.52667e-23
-1.42309e-20
9.53156e-23
-1.43265e-20
9.58999e-23
-1.44226e-20
9.59654e-23
-1.45188e-20
9.6533e-23
-1.46156e-20
9.66152e-23
-1.47124e-20
9.71663e-23
-1.48099e-20
9.72649e-23
-1.49073e-20
9.77996e-23
-1.50054e-20
9.79145e-23
-1.51035e-20
9.8433e-23
-1.52022e-20
9.8564e-23
-1.53009e-20
9.90664e-23
-1.54003e-20
9.92135e-23
-1.54997e-20
9.96999e-23
-1.55997e-20
9.9863e-23
-1.56997e-20
1.00334e-22
-1.58003e-20
1.00512e-22
-1.5901e-20
1.00967e-22
-1.60023e-20
1.01162e-22
-1.61036e-20
1.01601e-22
-1.62055e-20
1.01811e-22
-1.63074e-20
1.02235e-22
-1.641e-20
1.0246e-22
-1.65126e-20
1.02868e-22
-1.66158e-20
1.03109e-22
-1.6719e-20
1.03502e-22
-1.68229e-20
1.03759e-22
-1.69267e-20
1.04136e-22
-1.70312e-20
1.04408e-22
-1.71357e-20
1.0477e-22
-1.72409e-20
1.05057e-22
-1.7346e-20
1.05404e-22
-1.74518e-20
1.05706e-22
-1.75576e-20
1.06038e-22
-1.7664e-20
1.06355e-22
-1.77704e-20
1.06672e-22
-1.78775e-20
1.07003e-22
-1.79845e-20
1.07306e-22
-1.80922e-20
1.07652e-22
-1.81999e-20
1.0794e-22
-1.83083e-20
1.08301e-22
-1.84166e-20
1.08575e-22
-1.85256e-20
1.0895e-22
-1.86346e-20
1.09209e-22
-1.87442e-20
1.09599e-22
-1.88538e-20
1.09843e-22
-1.89641e-20
1.10247e-22
-1.90743e-20
1.10478e-22
-1.91852e-20
1.10896e-22
-1.92961e-20
1.11112e-22
-1.94077e-20
1.11545e-22
-1.95192e-20
1.11746e-22
-1.96314e-20
1.12193e-22
-1.97436e-20
1.12381e-22
-1.98564e-20
1.12842e-22
-1.99693e-20
1.13015e-22
-2.00827e-20
1.1349e-22
-2.01962e-20
1.1365e-22
-2.03103e-20
1.14139e-22
-2.04244e-20
1.14284e-22
-2.05392e-20
1.14787e-22
-2.06539e-20
1.14919e-22
-2.07693e-20
1.15436e-22
-2.08847e-20
1.15554e-22
-2.10007e-20
1.16084e-22
-2.11168e-20
1.16188e-22
-2.12334e-20
1.16732e-22
-2.13501e-20
1.16823e-22
-2.14674e-20
1.17381e-22
-2.15848e-20
1.17458e-22
-2.17027e-20
1.18029e-22
-2.18207e-20
1.18092e-22
-2.19393e-20
1.18677e-22
-2.20579e-20
1.18727e-22
-2.21771e-20
1.19325e-22
-2.22963e-20
1.19362e-22
-2.24162e-20
1.19974e-22
-2.25361e-20
1.19997e-22
-2.26566e-20
1.20622e-22
-2.27771e-20
1.20632e-22
-2.28983e-20
1.2127e-22
-2.30194e-20
1.21267e-22
-2.31412e-20
1.21918e-22
-2.3263e-20
1.21901e-22
-2.33855e-20
1.22566e-22
-2.35079e-20
1.22536e-22
-2.3631e-20
1.23214e-22
-2.37541e-20
1.23171e-22
-2.38778e-20
1.23862e-22
-2.40015e-20
1.23806e-22
-2.41259e-20
1.2451e-22
-2.42503e-20
1.24441e-22
-2.43753e-20
1.25159e-22
-2.45003e-20
1.25076e-22
-2.46259e-20
1.25807e-22
-2.47516e-20
1.25711e-22
-2.48779e-20
1.26455e-22
-2.50041e-20
1.26346e-22
-2.51311e-20
1.27103e-22
-2.5258e-20
1.26981e-22
-2.53856e-20
1.2775e-22
-2.55131e-20
1.27617e-22
-2.56413e-20
1.28398e-22
-2.57696e-20
1.28252e-22
-2.58984e-20
1.29046e-22
-2.60273e-20
1.28887e-22
-2.61568e-20
1.29694e-22
-2.62862e-20
1.29522e-22
-2.64164e-20
1.30342e-22
-2.65465e-20
1.30157e-22
-2.66773e-20
1.3099e-22
-2.68081e-20
1.30792e-22
-2.69395e-20
1.31638e-22
-2.70709e-20
1.31427e-22
-2.72029e-20
1.32286e-22
-2.7335e-20
1.32063e-22
-2.74677e-20
1.32934e-22
-2.76004e-20
1.32698e-22
-2.77337e-20
1.33581e-22
-2.78671e-20
1.33333e-22
-2.8001e-20
1.34229e-22
-2.8135e-20
1.33968e-22
-2.82696e-20
1.34877e-22
-2.84043e-20
1.34604e-22
-2.85395e-20
1.35525e-22
-2.86748e-20
1.35239e-22
-2.88107e-20
1.36173e-22
-2.89466e-20
1.35874e-22
-2.90831e-20
1.3682e-22
-2.92197e-20
1.36509e-22
-2.93569e-20
1.37468e-22
-2.9494e-20
1.37145e-22
-2.96319e-20
1.38116e-22
-2.97697e-20
1.3778e-22
-2.99082e-20
1.38764e-22
-3.00466e-20
1.38415e-22
-3.01857e-20
1.39411e-22
-3.03248e-20
1.39051e-22
-3.04646e-20
1.40059e-22
-3.06043e-20
1.39686e-22
-3.07447e-20
1.40707e-22
-3.08851e-20
1.40321e-22
-3.10261e-20
1.41355e-22
-3.11672e-20
1.40957e-22
-3.13088e-20
1.42002e-22
-3.14505e-20
1.41592e-22
-3.15928e-20
1.4265e-22
-3.17351e-20
1.42227e-22
-3.18781e-20
1.43298e-22
-3.2021e-20
1.42863e-22
-3.21646e-20
1.43945e-22
-3.23082e-20
1.43498e-22
-3.24524e-20
1.44593e-22
-3.25967e-20
1.44134e-22
-3.27416e-20
1.45241e-22
-3.28864e-20
1.44769e-22
-3.30319e-20
1.45888e-22
-3.31775e-20
1.45404e-22
-3.33236e-20
1.46536e-22
-3.34698e-20
1.4604e-22
-3.36166e-20
1.47184e-22
-3.37634e-20
1.46675e-22
-3.39108e-20
1.47831e-22
-3.40582e-20
1.47311e-22
-3.42063e-20
1.48479e-22
-3.43544e-20
1.47946e-22
-3.45031e-20
1.49127e-22
-3.46518e-20
1.48582e-22
-3.48012e-20
1.49774e-22
-3.49506e-20
1.49217e-22
-3.51006e-20
1.50422e-22
-3.52506e-20
1.49852e-22
-3.54012e-20
1.5107e-22
-3.55519e-20
1.50488e-22
-3.57032e-20
1.51717e-22
-3.58544e-20
1.51123e-22
-3.60064e-20
1.52365e-22
-3.61583e-20
1.51759e-22
-3.63109e-20
1.53012e-22
-3.64634e-20
1.52394e-22
-3.66166e-20
1.5366e-22
-3.67698e-20
1.5303e-22
-3.69237e-20
1.54308e-22
-3.70775e-20
1.53665e-22
-3.7232e-20
1.54955e-22
-3.73865e-20
1.543e-22
-3.75417e-20
1.55603e-22
-3.76968e-20
1.54936e-22
-3.78526e-20
1.56251e-22
-3.80083e-20
1.55571e-22
-3.81647e-20
1.56898e-22
-3.83211e-20
1.56207e-22
-3.84782e-20
1.57546e-22
-3.86352e-20
1.56842e-22
-3.8793e-20
1.58194e-22
-3.89506e-20
1.57478e-22
-3.9109e-20
1.58841e-22
-3.92673e-20
1.58113e-22
-3.94263e-20
1.59489e-22
-3.95852e-20
1.58749e-22
-3.97449e-20
1.60136e-22
-3.99045e-20
1.59384e-22
-4.00648e-20
1.60784e-22
-4.0225e-20
1.60019e-22
-4.03859e-20
1.61432e-22
-4.05468e-20
1.60655e-22
-4.07084e-20
1.62079e-22
-4.08699e-20
1.6129e-22
-4.10321e-20
1.62727e-22
-4.11942e-20
1.61926e-22
-4.13571e-20
1.63375e-22
-4.15199e-20
1.62561e-22
-4.16834e-20
1.64022e-22
-4.18468e-20
1.63197e-22
-4.20109e-20
1.6467e-22
-4.2175e-20
1.63832e-22
-4.23398e-20
1.65318e-22
-4.25045e-20
1.64468e-22
-4.26699e-20
1.65965e-22
-4.28353e-20
1.65103e-22
-4.30013e-20
1.66613e-22
-4.31673e-20
1.65738e-22
-4.3334e-20
1.6726e-22
-4.35007e-20
1.66374e-22
-4.3668e-20
1.67908e-22
-4.38353e-20
1.67009e-22
-4.40033e-20
1.68556e-22
-4.41712e-20
1.67645e-22
-4.43398e-20
1.69203e-22
-4.45084e-20
1.6828e-22
-4.46776e-20
1.69851e-22
-4.48468e-20
1.68915e-22
-4.50167e-20
1.70499e-22
-4.51866e-20
1.69551e-22
-4.53571e-20
1.71147e-22
-4.55276e-20
1.70186e-22
-4.56988e-20
1.71794e-22
-4.58699e-20
1.70822e-22
-4.60418e-20
1.72442e-22
-4.62135e-20
1.71457e-22
-4.6386e-20
1.7309e-22
-4.65584e-20
1.72092e-22
-4.67315e-20
1.73737e-22
-4.69045e-20
1.72728e-22
-4.70783e-20
1.74385e-22
-4.7252e-20
1.73363e-22
-4.74264e-20
1.75033e-22
-4.76007e-20
1.73999e-22
-4.77757e-20
1.7568e-22
-4.79507e-20
1.74634e-22
-4.81264e-20
1.76328e-22
-4.8302e-20
1.75269e-22
-4.84783e-20
1.76976e-22
-4.86545e-20
1.75905e-22
-4.88315e-20
1.77624e-22
-4.90084e-20
1.7654e-22
-4.9186e-20
1.78271e-22
-4.93635e-20
1.77175e-22
-4.95418e-20
1.78919e-22
-4.97199e-20
1.77811e-22
-4.98988e-20
1.79567e-22
-5.00776e-20
1.78446e-22
-5.02572e-20
1.80215e-22
-5.04366e-20
1.79081e-22
-5.06168e-20
1.80862e-22
-5.07969e-20
1.79717e-22
-5.09777e-20
1.8151e-22
-5.11584e-20
1.80352e-22
-5.13399e-20
1.82158e-22
-5.15212e-20
1.80987e-22
-5.17033e-20
1.82806e-22
-5.18853e-20
1.81623e-22
-5.20681e-20
1.83454e-22
-5.22507e-20
1.82258e-22
-5.24341e-20
1.84101e-22
-5.26174e-20
1.82893e-22
-5.28014e-20
1.84749e-22
-5.29853e-20
1.83528e-22
-5.317e-20
1.85397e-22
-5.33546e-20
1.84164e-22
-5.35399e-20
1.86045e-22
-5.37251e-20
1.84799e-22
-5.3911e-20
1.86693e-22
-5.40969e-20
1.85434e-22
-5.42835e-20
1.87341e-22
-5.44699e-20
1.86069e-22
-5.46572e-20
1.87988e-22
-5.48443e-20
1.86705e-22
-5.50322e-20
1.88636e-22
-5.52199e-20
1.8734e-22
-5.54085e-20
1.89284e-22
-5.55969e-20
1.87975e-22
-5.5786e-20
1.89932e-22
-5.59751e-20
1.8861e-22
-5.61649e-20
1.9058e-22
-5.63546e-20
1.89245e-22
-5.6545e-20
1.91228e-22
-5.67353e-20
1.89881e-22
-5.69264e-20
1.91876e-22
-5.71174e-20
1.90516e-22
-5.73091e-20
1.92524e-22
-5.75007e-20
1.91151e-22
-5.76931e-20
1.93172e-22
-5.78853e-20
1.91786e-22
-5.80784e-20
1.93819e-22
-5.82712e-20
1.92421e-22
-5.84649e-20
1.94467e-22
-5.86584e-20
1.93056e-22
-5.88527e-20
1.95115e-22
-5.90469e-20
1.93692e-22
-5.92418e-20
1.95763e-22
-5.94366e-20
1.94327e-22
-5.96322e-20
1.96411e-22
-5.98276e-20
1.94962e-22
-6.00239e-20
1.97059e-22
-6.02199e-20
1.95597e-22
-6.04168e-20
1.97707e-22
-6.06135e-20
1.96232e-22
-6.08111e-20
1.98355e-22
-6.10084e-20
1.96867e-22
-6.12066e-20
1.99003e-22
-6.14046e-20
1.97502e-22
-6.16034e-20
1.99651e-22
-6.1802e-20
1.98137e-22
-6.20014e-20
2.00299e-22
-6.22007e-20
1.98772e-22
-6.24008e-20
2.00947e-22
-6.26007e-20
1.99407e-22
-6.28014e-20
2.01595e-22
-6.3002e-20
2.00042e-22
-6.32034e-20
2.02243e-22
-6.34046e-20
2.00677e-22
-6.36066e-20
2.02892e-22
-6.38084e-20
2.01313e-22
-6.40111e-20
2.0354e-22
-6.42135e-20
2.01948e-22
-6.44168e-20
2.04188e-22
-6.46199e-20
2.02583e-22
-6.48239e-20
2.04836e-22
-6.50276e-20
2.03217e-22
-6.52322e-20
2.05484e-22
-6.54366e-20
2.03852e-22
-6.56418e-20
2.06132e-22
-6.58469e-20
2.04487e-22
-6.60527e-20
2.0678e-22
-6.62584e-20
2.05122e-22
-6.64649e-20
2.07428e-22
-6.66712e-20
2.05757e-22
-6.68784e-20
2.08077e-22
-6.70853e-20
2.06392e-22
-6.72931e-20
2.08725e-22
-6.75007e-20
2.07027e-22
-6.77091e-20
2.09373e-22
-6.79174e-20
2.07662e-22
-6.81264e-20
2.10021e-22
-6.83353e-20
2.08297e-22
-6.8545e-20
2.10669e-22
-6.87545e-20
2.08932e-22
-6.89649e-20
2.11318e-22
-6.91751e-20
2.09567e-22
-6.93861e-20
2.11966e-22
-6.95969e-20
2.10202e-22
-6.98085e-20
2.12614e-22
-7.00199e-20
2.10836e-22
-7.02322e-20
2.13262e-22
-7.04443e-20
2.11471e-22
-7.06572e-20
2.13911e-22
-7.08699e-20
2.12106e-22
-7.10835e-20
2.14559e-22
-7.12968e-20
2.12741e-22
-7.15111e-20
2.15207e-22
-7.1725e-20
2.13376e-22
-7.19399e-20
2.15856e-22
-7.21545e-20
2.14011e-22
-7.237e-20
2.16504e-22
-7.25853e-20
2.14645e-22
-7.28014e-20
2.17152e-22
-7.30174e-20
2.1528e-22
-7.32341e-20
2.17801e-22
-7.34507e-20
2.15915e-22
-7.36681e-20
2.18449e-22
-7.38853e-20
2.1655e-22
-7.41034e-20
2.19097e-22
-7.43212e-20
2.17184e-22
-7.45399e-20
2.19746e-22
-7.47584e-20
2.17819e-22
-7.49777e-20
2.20394e-22
-7.51968e-20
2.18454e-22
-7.54168e-20
2.21042e-22
-7.56366e-20
2.19088e-22
-7.58572e-20
2.21691e-22
-7.60776e-20
2.19723e-22
-7.62989e-20
2.22339e-22
-7.65199e-20
2.20358e-22
-7.67418e-20
2.22988e-22
-7.69635e-20
2.20992e-22
-7.71861e-20
2.23636e-22
-7.74084e-20
2.21627e-22
-7.76316e-20
2.24285e-22
-7.78545e-20
2.22262e-22
-7.80784e-20
2.24933e-22
-7.83019e-20
2.22896e-22
-7.85264e-20
2.25582e-22
-7.87507e-20
2.23531e-22
-7.89758e-20
2.2623e-22
-7.92007e-20
2.24166e-22
-7.94264e-20
2.26879e-22
-7.96519e-20
2.248e-22
-7.98784e-20
2.27527e-22
-8.01045e-20
2.25435e-22
-8.03316e-20
2.28176e-22
-8.05583e-20
2.26069e-22
-8.07861e-20
2.28824e-22
-8.10135e-20
2.26704e-22
-8.12418e-20
2.29473e-22
-8.14699e-20
2.27338e-22
-8.16989e-20
2.30122e-22
-8.19276e-20
2.27973e-22
-8.21572e-20
2.3077e-22
-8.23865e-20
2.28607e-22
-8.26168e-20
2.31419e-22
-8.28468e-20
2.29242e-22
-8.30777e-20
2.32067e-22
-8.33083e-20
2.29876e-22
-8.35399e-20
2.32716e-22
-8.37712e-20
2.30511e-22
-8.40034e-20
2.33365e-22
-8.42353e-20
2.31145e-22
-8.44681e-20
2.34013e-22
-8.47006e-20
2.3178e-22
-8.49341e-20
2.34662e-22
-8.51673e-20
2.32414e-22
-8.54014e-20
2.35311e-22
-8.56352e-20
2.33048e-22
-8.587e-20
2.3596e-22
-8.61045e-20
2.33683e-22
-8.63399e-20
2.36608e-22
-8.6575e-20
2.34317e-22
-8.6811e-20
2.37257e-22
-8.70468e-20
2.34952e-22
-8.72835e-20
2.37906e-22
-8.75198e-20
2.35586e-22
-8.77572e-20
2.38555e-22
-8.79942e-20
2.3622e-22
-8.82322e-20
2.39203e-22
-8.84698e-20
2.36855e-22
-8.87085e-20
2.39852e-22
-8.89468e-20
2.37489e-22
-8.9186e-20
2.40501e-22
-8.9425e-20
2.38123e-22
-8.96649e-20
2.4115e-22
-8.99044e-20
2.38757e-22
-9.0145e-20
2.41799e-22
-9.03852e-20
2.39392e-22
-9.06264e-20
2.42447e-22
-9.08673e-20
2.40026e-22
-9.11091e-20
2.43096e-22
-9.13506e-20
2.4066e-22
-9.15931e-20
2.43745e-22
-9.18352e-20
2.41294e-22
-9.20783e-20
2.44394e-22
-9.23211e-20
2.41929e-22
-9.25649e-20
2.45043e-22
-9.28083e-20
2.42563e-22
-9.30527e-20
2.45692e-22
-9.32967e-20
2.43197e-22
-9.35418e-20
2.46341e-22
-9.37865e-20
2.43831e-22
-9.40322e-20
2.4699e-22
-9.42775e-20
2.44465e-22
-9.45238e-20
2.47639e-22
-9.47698e-20
2.45099e-22
-9.50168e-20
2.48288e-22
-9.52634e-20
2.45733e-22
-9.5511e-20
2.48937e-22
-9.57583e-20
2.46368e-22
-9.60065e-20
2.49586e-22
-9.62544e-20
2.47002e-22
-9.65033e-20
2.50235e-22
-9.67518e-20
2.47636e-22
-9.70014e-20
2.50884e-22
-9.72506e-20
2.4827e-22
-9.75008e-20
2.51533e-22
-9.77506e-20
2.48904e-22
-9.80014e-20
2.52182e-22
-9.82518e-20
2.49538e-22
-9.85033e-20
2.52831e-22
-9.87544e-20
2.50172e-22
-9.90065e-20
2.5348e-22
-9.92582e-20
2.50806e-22
-9.9511e-20
2.5413e-22
-9.97634e-20
2.5144e-22
-1.00017e-19
2.54779e-22
-1.0027e-19
2.52074e-22
-1.00524e-19
2.55428e-22
-1.00777e-19
2.52708e-22
-1.01032e-19
2.56077e-22
-1.01286e-19
2.53342e-22
-1.01542e-19
2.56726e-22
-1.01797e-19
2.53976e-22
-1.02053e-19
2.57375e-22
-1.02308e-19
2.54609e-22
-1.02565e-19
2.58025e-22
-1.02821e-19
2.55243e-22
-1.03078e-19
2.58674e-22
-1.03335e-19
2.55877e-22
-1.03593e-19
2.59323e-22
-1.03851e-19
2.56511e-22
-1.04109e-19
2.59972e-22
-1.04367e-19
2.57145e-22
-1.04626e-19
2.60622e-22
-1.04885e-19
2.57779e-22
-1.05145e-19
2.61271e-22
-1.05404e-19
2.58413e-22
-1.05665e-19
2.6192e-22
-1.05925e-19
2.59046e-22
-1.06186e-19
2.6257e-22
-1.06447e-19
2.5968e-22
-1.06708e-19
2.63219e-22
-1.0697e-19
2.60314e-22
-1.07232e-19
2.63868e-22
-1.07494e-19
2.60948e-22
-1.07757e-19
2.64518e-22
-1.0802e-19
2.61581e-22
-1.08283e-19
2.65167e-22
-1.08547e-19
2.62215e-22
-1.08811e-19
2.65817e-22
-1.09075e-19
2.62849e-22
-1.0934e-19
2.66466e-22
-1.09604e-19
2.63483e-22
-1.0987e-19
2.67115e-22
-1.10135e-19
2.64116e-22
-1.10401e-19
2.67765e-22
-1.10667e-19
2.6475e-22
-1.10934e-19
2.68414e-22
-1.112e-19
2.65383e-22
-1.11468e-19
2.69064e-22
-1.11735e-19
2.66017e-22
-1.12003e-19
2.69713e-22
-1.12271e-19
2.66651e-22
-1.1254e-19
2.70363e-22
-1.12808e-19
2.67284e-22
-1.13078e-19
2.71012e-22
-1.13347e-19
2.67918e-22
-1.13617e-19
2.71662e-22
-1.13886e-19
2.68551e-22
-1.14157e-19
2.72312e-22
-1.14427e-19
2.69185e-22
-1.14699e-19
2.72961e-22
-1.1497e-19
2.69819e-22
-1.15242e-19
2.73611e-22
-1.15513e-19
2.70452e-22
-1.15786e-19
2.7426e-22
-1.16058e-19
2.71086e-22
-1.16331e-19
2.7491e-22
-1.16604e-19
2.71719e-22
-1.16878e-19
2.7556e-22
-1.17152e-19
2.72352e-22
-1.17426e-19
2.76209e-22
-1.177e-19
2.72986e-22
-1.17976e-19
2.76859e-22
-1.1825e-19
2.73619e-22
-1.18526e-19
2.77509e-22
-1.18802e-19
2.74253e-22
-1.19078e-19
2.78158e-22
-1.19354e-19
2.74886e-22
-1.19631e-19
2.78808e-22
-1.19908e-19
2.7552e-22
-1.20186e-19
2.79458e-22
-1.20463e-19
2.76153e-22
-1.20742e-19
2.80108e-22
-1.2102e-19
2.76786e-22
-1.21299e-19
2.80758e-22
-1.21577e-19
2.7742e-22
-1.21857e-19
2.81407e-22
-1.22136e-19
2.78053e-22
-1.22417e-19
2.82057e-22
-1.22697e-19
2.78686e-22
-1.22978e-19
2.82707e-22
-1.23258e-19
2.79319e-22
-1.2354e-19
2.83357e-22
-1.23821e-19
2.79953e-22
-1.24103e-19
2.84007e-22
-1.24385e-19
2.80586e-22
-1.24668e-19
2.84657e-22
-1.2495e-19
2.81219e-22
-1.25234e-19
2.85306e-22
-1.25517e-19
2.81852e-22
-1.25801e-19
2.85956e-22
-1.26085e-19
2.82486e-22
-1.2637e-19
2.86606e-22
-1.26654e-19
2.83119e-22
-1.2694e-19
2.87256e-22
-1.27225e-19
2.83752e-22
-1.27511e-19
2.87906e-22
-1.27796e-19
2.84385e-22
-1.28083e-19
2.88556e-22
-1.2837e-19
2.85018e-22
-1.28657e-19
2.89206e-22
-1.28944e-19
2.85651e-22
-1.29232e-19
2.89856e-22
-1.2952e-19
2.86284e-22
-1.29808e-19
2.90506e-22
-1.30096e-19
2.86918e-22
-1.30386e-19
2.91156e-22
-1.30675e-19
2.87551e-22
-1.30965e-19
2.91806e-22
-1.31254e-19
2.88184e-22
-1.31545e-19
2.92457e-22
-1.31835e-19
2.88817e-22
-1.32126e-19
2.93107e-22
-1.32417e-19
2.8945e-22
-1.32709e-19
2.93757e-22
-1.33e-19
2.90083e-22
-1.33293e-19
2.94407e-22
-1.33585e-19
2.90716e-22
-1.33878e-19
2.95057e-22
-1.34171e-19
2.91349e-22
-1.34465e-19
2.95707e-22
-1.34758e-19
2.91982e-22
-1.35053e-19
2.96357e-22
-1.35346e-19
2.92614e-22
-1.35642e-19
2.97008e-22
-1.35936e-19
2.93247e-22
-1.36232e-19
2.97658e-22
-1.36527e-19
2.9388e-22
-1.36824e-19
2.98308e-22
-1.3712e-19
2.94513e-22
-1.37417e-19
2.98958e-22
-1.37713e-19
2.95146e-22
-1.38011e-19
2.99609e-22
-1.38308e-19
2.95779e-22
-1.38606e-19
3.00259e-22
-1.38904e-19
2.96412e-22
-1.39203e-19
3.00909e-22
-1.39502e-19
2.97045e-22
-1.39801e-19
3.0156e-22
-1.401e-19
2.97677e-22
-1.40401e-19
3.0221e-22
-1.407e-19
2.9831e-22
-1.41001e-19
3.0286e-22
-1.41302e-19
2.98943e-22
-1.41603e-19
3.03511e-22
-1.41904e-19
2.99576e-22
-1.42206e-19
3.04161e-22
-1.42508e-19
3.00208e-22
-1.42811e-19
3.04812e-22
-1.43113e-19
3.00841e-22
-1.43417e-19
3.05462e-22
-1.43719e-19
3.01474e-22
-1.44024e-19
3.06112e-22
-1.44327e-19
3.02106e-22
-1.44632e-19
3.06763e-22
-1.44936e-19
3.02739e-22
-1.45242e-19
3.07413e-22
-1.45546e-19
3.03372e-22
-1.45853e-19
3.08064e-22
-1.46158e-19
3.04004e-22
-1.46465e-19
3.08714e-22
-1.46771e-19
3.04637e-22
-1.47078e-19
3.09365e-22
-1.47385e-19
3.0527e-22
-1.47693e-19
3.10015e-22
-1.48e-19
3.05902e-22
-1.48309e-19
3.10666e-22
-1.48617e-19
3.06535e-22
-1.48926e-19
3.11317e-22
-1.49235e-19
3.07167e-22
-1.49545e-19
3.11967e-22
-1.49854e-19
3.078e-22
-1.50165e-19
3.12618e-22
-1.50475e-19
3.08432e-22
-1.50786e-19
3.13269e-22
-1.51096e-19
3.09065e-22
-1.51408e-19
3.13919e-22
-1.51719e-19
3.09697e-22
-1.52032e-19
3.1457e-22
-1.52344e-19
3.1033e-22
-1.52657e-19
3.15221e-22
-1.52969e-19
3.10962e-22
-1.53283e-19
3.15871e-22
-1.53596e-19
3.11595e-22
-1.53911e-19
3.16522e-22
-1.54225e-19
3.12227e-22
-1.5454e-19
3.17173e-22
-1.54854e-19
3.12859e-22
-1.5517e-19
3.17823e-22
-1.55485e-19
3.13492e-22
-1.55801e-19
3.18474e-22
-1.56117e-19
3.14124e-22
-1.56434e-19
3.19125e-22
-1.5675e-19
3.14756e-22
-1.57068e-19
3.19776e-22
-1.57385e-19
3.15389e-22
-1.57703e-19
3.20427e-22
-1.58021e-19
3.16021e-22
-1.5834e-19
3.21078e-22
-1.58658e-19
3.16653e-22
-1.58977e-19
3.21728e-22
-1.59296e-19
3.17286e-22
-1.59617e-19
3.22379e-22
-1.59936e-19
3.17918e-22
-1.60257e-19
3.2303e-22
-1.60577e-19
3.1855e-22
-1.60899e-19
3.23681e-22
-1.61219e-19
3.19182e-22
-1.61542e-19
3.24332e-22
-1.61863e-19
3.19814e-22
-1.62186e-19
3.24983e-22
-1.62508e-19
3.20447e-22
-1.62831e-19
3.25634e-22
-1.63154e-19
3.21079e-22
-1.63478e-19
3.26285e-22
-1.63801e-19
3.21711e-22
-1.64126e-19
3.26936e-22
-1.6445e-19
3.22343e-22
-1.64776e-19
3.27587e-22
-1.651e-19
3.22975e-22
-1.65426e-19
3.28238e-22
-1.65751e-19
3.23607e-22
-1.66078e-19
3.28889e-22
-1.66404e-19
3.24239e-22
-1.66731e-19
3.2954e-22
-1.67058e-19
3.24871e-22
-1.67386e-19
3.30191e-22
-1.67713e-19
3.25503e-22
-1.68042e-19
3.30842e-22
-1.68369e-19
3.26135e-22
-1.68699e-19
3.31493e-22
-1.69027e-19
3.26767e-22
-1.69357e-19
3.32145e-22
-1.69686e-19
3.27399e-22
-1.70017e-19
3.32796e-22
-1.70346e-19
3.28031e-22
-1.70677e-19
3.33447e-22
-1.71008e-19
3.28663e-22
-1.7134e-19
3.34098e-22
-1.71671e-19
3.29295e-22
-1.72003e-19
3.34749e-22
-1.72335e-19
3.29927e-22
-1.72668e-19
3.35401e-22
-1.73e-19
3.30559e-22
-1.73334e-19
3.36052e-22
-1.73667e-19
3.31191e-22
-1.74001e-19
3.36703e-22
-1.74335e-19
3.31823e-22
-1.7467e-19
3.37354e-22
-1.75004e-19
3.32455e-22
-1.7534e-19
3.38006e-22
-1.75674e-19
3.33086e-22
-1.76011e-19
3.38657e-22
-1.76346e-19
3.33718e-22
-1.76683e-19
3.39308e-22
-1.77019e-19
3.3435e-22
-1.77357e-19
3.3996e-22
-1.77694e-19
3.34982e-22
-1.78032e-19
3.40611e-22
-1.78369e-19
3.35614e-22
-1.78708e-19
3.41263e-22
-1.79046e-19
3.36245e-22
-1.79386e-19
3.41914e-22
-1.79724e-19
3.36877e-22
-1.80065e-19
3.42565e-22
-1.80404e-19
3.37509e-22
-1.80745e-19
3.43217e-22
-1.81085e-19
3.3814e-22
-1.81426e-19
3.43868e-22
-1.81767e-19
3.38772e-22
-1.82109e-19
3.4452e-22
-1.8245e-19
3.39404e-22
-1.82793e-19
3.45171e-22
-1.83135e-19
3.40035e-22
-1.83478e-19
3.45823e-22
-1.8382e-19
3.40667e-22
-1.84165e-19
3.46474e-22
-1.84508e-19
3.41298e-22
-1.84852e-19
3.47126e-22
-1.85196e-19
3.4193e-22
-1.85541e-19
3.47778e-22
-1.85886e-19
3.42562e-22
-1.86232e-19
3.48429e-22
-1.86577e-19
3.43193e-22
-1.86923e-19
3.49081e-22
-1.87269e-19
3.43825e-22
-1.87616e-19
3.49732e-22
-1.87963e-19
3.44456e-22
-1.88311e-19
3.50384e-22
-1.88658e-19
3.45088e-22
-1.89006e-19
3.51036e-22
-1.89354e-19
3.45719e-22
-1.89703e-19
3.51687e-22
-1.90051e-19
3.46351e-22
-1.90401e-19
3.52339e-22
-1.9075e-19
3.46982e-22
-1.911e-19
3.52991e-22
-1.9145e-19
3.47613e-22
-1.91801e-19
3.53642e-22
-1.92151e-19
3.48245e-22
-1.92503e-19
3.54294e-22
-1.92854e-19
3.48876e-22
-1.93206e-19
3.54946e-22
-1.93558e-19
3.49508e-22
-1.93911e-19
3.55598e-22
-1.94263e-19
3.50139e-22
-1.94616e-19
3.5625e-22
-1.94969e-19
3.5077e-22
-1.95323e-19
3.56901e-22
-1.95677e-19
3.51402e-22
-1.96032e-19
3.57553e-22
-1.96386e-19
3.52033e-22
-1.96741e-19
3.58205e-22
-1.97096e-19
3.52664e-22
-1.97452e-19
3.58857e-22
-1.97807e-19
3.53295e-22
-1.98164e-19
3.59509e-22
-1.9852e-19
3.53927e-22
-1.98878e-19
3.60161e-22
-1.99234e-19
3.54558e-22
-1.99593e-19
3.60813e-22
-1.9995e-19
3.55189e-22
-2.00309e-19
3.61465e-22
-2.00666e-19
3.5582e-22
-2.01026e-19
3.62117e-22
-2.01384e-19
3.56451e-22
-2.01745e-19
3.62769e-22
-2.02104e-19
3.57082e-22
-2.02464e-19
3.63421e-22
-2.02824e-19
3.57714e-22
-2.03186e-19
3.64073e-22
-2.03546e-19
3.58345e-22
-2.03908e-19
3.64725e-22
-2.04269e-19
3.58976e-22
-2.04632e-19
3.65377e-22
-2.04993e-19
3.59607e-22
-2.05357e-19
3.66029e-22
-2.05719e-19
3.60238e-22
-2.06083e-19
3.66681e-22
-2.06446e-19
3.60869e-22
-2.06811e-19
3.67333e-22
-2.07174e-19
3.615e-22
-2.07539e-19
3.67985e-22
-2.07904e-19
3.62131e-22
-2.0827e-19
3.68637e-22
-2.08634e-19
3.62762e-22
-2.09001e-19
3.6929e-22
-2.09366e-19
3.63393e-22
-2.09734e-19
3.69942e-22
-2.101e-19
3.64024e-22
-2.10468e-19
3.70594e-22
-2.10834e-19
3.64655e-22
-2.11203e-19
3.71246e-22
-2.1157e-19
3.65286e-22
-2.11939e-19
3.71898e-22
-2.12307e-19
3.65917e-22
-2.12677e-19
3.72551e-22
-2.13046e-19
3.66547e-22
-2.13416e-19
3.73203e-22
-2.13786e-19
3.67178e-22
-2.14157e-19
3.73855e-22
-2.14527e-19
3.67809e-22
-2.14898e-19
3.74508e-22
-2.15269e-19
3.6844e-22
-2.15641e-19
3.7516e-22
-2.16012e-19
3.69071e-22
-2.16386e-19
3.75812e-22
-2.16757e-19
3.69701e-22
-2.17131e-19
3.76465e-22
-2.17503e-19
3.70332e-22
-2.17878e-19
3.77117e-22
-2.18251e-19
3.70963e-22
-2.18626e-19
3.77769e-22
-2.19e-19
3.71594e-22
-2.19375e-19
3.78422e-22
-2.1975e-19
3.72224e-22
-2.20126e-19
3.79074e-22
-2.20501e-19