/*--------------------------------*- C++ -*----------------------------------*\
| =========                 |                                                 |
| \\      /  F ield         | OpenFOAM: The Open Source CFD Toolbox           |
|  \\    /   O peration     | Version:  2206                                  |
|   \\  /    A nd           | Website:  www.openfoam.com                      |
|    \\/     M anipulation  |                                                 |
\*---------------------------------------------------------------------------*/
FoamFile
{
    version     2.0;
    format      ascii;
    arch        "LSB;label=32;scalar=64";
    class       volVectorField;
    location    "20";
    object      U;
}
// * * * * * * * * * * * * * * * * * * * * * * * * * * * * * * * * * * * * * //

dimensions      [0 1 -1 0 0 0 0];

internalField   nonuniform List<vector> 
100000
(
(-9.59083e-12 6.17115e-08 -8.73963e-12)
(-2.83074e-12 7.49376e-08 2.18732e-14)
(-9.88927e-12 1.45971e-07 3.1655e-14)
(-9.19304e-12 2.18977e-07 -8.56519e-14)
(-5.68655e-12 2.8996e-07 -3.30087e-14)
(-2.48856e-12 2.94009e-07 6.4612e-14)
(-3.31163e-12 3.65281e-07 1.01146e-14)
(-5.1553e-12 4.38324e-07 7.61768e-16)
(-4.34835e-12 5.11366e-07 5.00192e-15)
(-4.44461e-12 5.82473e-07 5.06733e-15)
(-3.53708e-12 5.86371e-07 2.2977e-15)
(-4.02831e-12 6.57595e-07 6.21745e-15)
(-3.774e-12 7.30642e-07 6.54747e-15)
(-4.1804e-12 8.03688e-07 7.56646e-15)
(-4.14715e-12 8.74835e-07 2.61728e-15)
(-4.05651e-12 8.78705e-07 3.89698e-15)
(-4.13719e-12 9.49905e-07 6.79413e-15)
(-4.43959e-12 1.02295e-06 8.3216e-15)
(-4.64843e-12 1.096e-06 7.31654e-15)
(-4.86853e-12 1.16717e-06 4.62758e-15)
(-4.69986e-12 1.17103e-06 3.19418e-15)
(-4.90115e-12 1.24221e-06 8.63216e-15)
(-5.1913e-12 1.31526e-06 7.54505e-15)
(-5.42938e-12 1.38834e-06 8.80695e-15)
(-5.7349e-12 1.46139e-06 7.87041e-15)
(-5.94051e-12 1.53256e-06 4.80361e-15)
(-5.80833e-12 1.53642e-06 3.63294e-15)
(-6.03309e-12 1.6076e-06 8.83887e-15)
(-6.31151e-12 1.68065e-06 7.79697e-15)
(-6.62366e-12 1.7537e-06 8.94421e-15)
(-6.82747e-12 1.82488e-06 3.98421e-15)
(-6.72629e-12 1.82873e-06 4.57143e-15)
(-6.93479e-12 1.89991e-06 8.13838e-15)
(-7.2463e-12 1.97295e-06 8.59495e-15)
(-7.5406e-12 2.046e-06 8.29783e-15)
(-7.77341e-12 2.11719e-06 4.6859e-15)
(-7.65722e-12 2.12104e-06 4.00612e-15)
(-7.89018e-12 2.19221e-06 8.78007e-15)
(-8.18868e-12 2.26526e-06 8.06588e-15)
(-8.50338e-12 2.33831e-06 8.86272e-15)
(-8.72505e-12 2.4095e-06 4.19713e-15)
(-8.62662e-12 2.41335e-06 4.53435e-15)
(-8.85005e-12 2.48452e-06 8.34152e-15)
(-9.16355e-12 2.55757e-06 8.53609e-15)
(-9.46985e-12 2.63062e-06 8.44917e-15)
(-9.70436e-12 2.70181e-06 4.62233e-15)
(-9.59901e-12 2.70566e-06 4.16657e-15)
(-9.83355e-12 2.77683e-06 8.73823e-15)
(-1.01409e-11 2.84988e-06 8.18856e-15)
(-1.04567e-11 2.92293e-06 8.80508e-15)
(-1.06858e-11 2.99412e-06 4.2977e-15)
(-1.0589e-11 2.99797e-06 4.50489e-15)
(-1.08188e-11 3.06914e-06 8.44324e-15)
(-1.11335e-11 3.14218e-06 8.4945e-15)
(-1.1445e-11 3.21523e-06 8.52416e-15)
(-1.16805e-11 3.28643e-06 4.57836e-15)
(-1.15802e-11 3.29028e-06 4.2521e-15)
(-1.18157e-11 3.36144e-06 8.70855e-15)
(-1.21271e-11 3.43449e-06 8.25344e-15)
(-1.24436e-11 3.50754e-06 8.7651e-15)
(-1.26762e-11 3.57874e-06 4.35114e-15)
(-1.25805e-11 3.58259e-06 4.48379e-15)
(-1.28134e-11 3.65375e-06 8.50016e-15)
(-1.31289e-11 3.7268e-06 8.46517e-15)
(-1.34429e-11 3.79985e-06 8.56506e-15)
(-1.36791e-11 3.87105e-06 4.54737e-15)
(-1.35813e-11 3.8749e-06 4.30196e-15)
(-1.38177e-11 3.94606e-06 8.68891e-15)
(-1.41305e-11 4.0191e-06 8.28586e-15)
(-1.44496e-11 4.09215e-06 8.74908e-15)
(-1.46784e-11 4.16336e-06 4.35674e-15)
(-1.4596e-11 4.16721e-06 4.5129e-15)
(-1.48055e-11 4.23836e-06 8.46525e-15)
(-1.51674e-11 4.31141e-06 8.61078e-15)
(-1.54119e-11 4.38449e-06 8.5005e-15)
(-1.57745e-11 4.45754e-06 8.68189e-15)
(-1.59853e-11 4.52874e-06 4.45277e-15)
(-1.59019e-11 4.53259e-06 4.45089e-15)
(-1.61317e-11 4.60375e-06 8.58874e-15)
(-1.64504e-11 4.67679e-06 8.45538e-15)
(-1.6766e-11 4.74984e-06 8.62682e-15)
(-1.70031e-11 4.82105e-06 4.52732e-15)
(-1.69065e-11 4.8249e-06 4.361e-15)
(-1.71433e-11 4.89605e-06 8.69042e-15)
(-1.74589e-11 4.9691e-06 8.34833e-15)
(-1.77766e-11 5.04215e-06 8.73056e-15)
(-1.80126e-11 5.11336e-06 4.42126e-15)
(-1.79174e-11 5.11721e-06 4.46485e-15)
(-1.81535e-11 5.18836e-06 8.59078e-15)
(-1.84703e-11 5.26141e-06 8.44403e-15)
(-1.87871e-11 5.33446e-06 8.63356e-15)
(-1.90243e-11 5.40566e-06 4.51181e-15)
(-1.89285e-11 5.40951e-06 4.37645e-15)
(-1.91655e-11 5.48067e-06 8.67796e-15)
(-1.94817e-11 5.55371e-06 8.35743e-15)
(-1.97994e-11 5.62676e-06 8.71429e-15)
(-2.00359e-11 5.69797e-06 4.42917e-15)
(-1.99411e-11 5.70182e-06 4.45662e-15)
(-2.01776e-11 5.77297e-06 8.60033e-15)
(-2.04946e-11 5.84602e-06 8.43144e-15)
(-2.08117e-11 5.91907e-06 8.63842e-15)
(-2.10491e-11 5.99028e-06 4.49946e-15)
(-2.09538e-11 5.99413e-06 4.38735e-15)
(-2.11911e-11 6.06528e-06 8.66826e-15)
(-2.15076e-11 6.13833e-06 8.36331e-15)
(-2.18253e-11 6.21138e-06 8.70146e-15)
(-2.20622e-11 6.28259e-06 4.43426e-15)
(-2.19677e-11 6.28643e-06 4.45025e-15)
(-2.22045e-11 6.35759e-06 8.60688e-15)
(-2.25216e-11 6.43063e-06 8.42148e-15)
(-2.28389e-11 6.50368e-06 8.64125e-15)
(-2.30764e-11 6.57489e-06 4.48969e-15)
(-2.29815e-11 6.57874e-06 4.39489e-15)
(-2.3219e-11 6.64989e-06 8.6621e-15)
(-2.35351e-11 6.72294e-06 8.36219e-15)
(-2.38551e-11 6.79599e-06 8.70365e-15)
(-2.40865e-11 6.8672e-06 4.41248e-15)
(-2.40048e-11 6.87105e-06 4.48949e-15)
(-2.42169e-11 6.9422e-06 8.54199e-15)
(-2.45798e-11 7.01525e-06 8.58023e-15)
(-2.48265e-11 7.08832e-06 8.55279e-15)
(-2.51899e-11 7.16137e-06 8.63387e-15)
(-2.54025e-11 7.23258e-06 4.49212e-15)
(-2.53201e-11 7.23643e-06 4.42674e-15)
(-2.55517e-11 7.30758e-06 8.6432e-15)
(-2.58713e-11 7.38063e-06 8.42107e-15)
(-2.61884e-11 7.45368e-06 8.66187e-15)
(-2.64262e-11 7.52489e-06 4.48595e-15)
(-2.63312e-11 7.52874e-06 4.41254e-15)
(-2.65687e-11 7.59989e-06 8.66779e-15)
(-2.68859e-11 7.67294e-06 8.38686e-15)
(-2.7204e-11 7.74599e-06 8.69468e-15)
(-2.74414e-11 7.8172e-06 4.44897e-15)
(-2.73468e-11 7.82105e-06 4.44743e-15)
(-2.75841e-11 7.8922e-06 8.63227e-15)
(-2.79016e-11 7.96524e-06 8.41887e-15)
(-2.82194e-11 8.03829e-06 8.65959e-15)
(-2.8457e-11 8.1095e-06 4.47981e-15)
(-2.83623e-11 8.11335e-06 4.41571e-15)
(-2.85999e-11 8.1845e-06 8.66208e-15)
(-2.89172e-11 8.25755e-06 8.38706e-15)
(-2.92352e-11 8.3306e-06 8.68721e-15)
(-2.94727e-11 8.40181e-06 4.44944e-15)
(-2.93783e-11 8.40566e-06 4.44399e-15)
(-2.96157e-11 8.47681e-06 8.63316e-15)
(-2.99332e-11 8.54986e-06 8.4129e-15)
(-3.0251e-11 8.62291e-06 8.65858e-15)
(-3.04887e-11 8.69412e-06 4.47435e-15)
(-3.03942e-11 8.69797e-06 4.4182e-15)
(-3.06318e-11 8.76912e-06 8.65726e-15)
(-3.09492e-11 8.84216e-06 8.38695e-15)
(-3.12672e-11 8.91521e-06 8.68086e-15)
(-3.15047e-11 8.98642e-06 4.44958e-15)
(-3.14105e-11 8.99027e-06 4.44112e-15)
(-3.16479e-11 9.06142e-06 8.63368e-15)
(-3.19655e-11 9.13447e-06 8.40781e-15)
(-3.22833e-11 9.20752e-06 8.65747e-15)
(-3.25211e-11 9.27873e-06 4.46971e-15)
(-3.24267e-11 9.28258e-06 4.42015e-15)
(-3.26643e-11 9.35373e-06 8.65315e-15)
(-3.29817e-11 9.42678e-06 8.38664e-15)
(-3.32997e-11 9.49983e-06 8.6754e-15)
(-3.35373e-11 9.57104e-06 4.44957e-15)
(-3.34432e-11 9.57489e-06 4.43835e-15)
(-3.36808e-11 9.64604e-06 8.63548e-15)
(-3.39977e-11 9.71908e-06 8.39846e-15)
(-3.43178e-11 9.79213e-06 8.66881e-15)
(-3.45499e-11 9.86334e-06 4.44066e-15)
(-3.44682e-11 9.86719e-06 4.46593e-15)
(-3.4681e-11 9.93834e-06 8.58011e-15)
(-3.5044e-11 1.00114e-05 8.55296e-15)
(-3.52914e-11 1.00845e-05 8.5799e-15)
(-3.56547e-11 1.01575e-05 8.59842e-15)
(-3.58679e-11 1.02287e-05 4.51408e-15)
(-3.57858e-11 1.02326e-05 4.40386e-15)
(-3.60179e-11 1.03037e-05 8.67237e-15)
(-3.63376e-11 1.03768e-05 8.39282e-15)
(-3.66551e-11 1.04498e-05 8.68174e-15)
(-3.6893e-11 1.0521e-05 4.45497e-15)
(-3.67986e-11 1.05249e-05 4.44175e-15)
(-3.70362e-11 1.0596e-05 8.64595e-15)
(-3.73539e-11 1.06691e-05 8.4091e-15)
(-3.76719e-11 1.07421e-05 8.66625e-15)
(-3.79097e-11 1.08133e-05 4.4664e-15)
(-3.78153e-11 1.08172e-05 4.42953e-15)
(-3.8053e-11 1.08883e-05 8.6565e-15)
(-3.83706e-11 1.09614e-05 8.39656e-15)
(-3.86888e-11 1.10344e-05 8.67576e-15)
(-3.89265e-11 1.11056e-05 4.45464e-15)
(-3.88322e-11 1.11095e-05 4.43974e-15)
(-3.90698e-11 1.11806e-05 8.64526e-15)
(-3.93875e-11 1.12537e-05 8.40542e-15)
(-3.97056e-11 1.13267e-05 8.66451e-15)
(-3.99434e-11 1.1398e-05 4.46326e-15)
(-3.98491e-11 1.14018e-05 4.43012e-15)
(-4.00868e-11 1.1473e-05 8.65342e-15)
(-4.04044e-11 1.1546e-05 8.39543e-15)
(-4.07225e-11 1.16191e-05 8.67177e-15)
(-4.09603e-11 1.16903e-05 4.45395e-15)
(-4.08661e-11 1.16941e-05 4.43804e-15)
(-4.11037e-11 1.17653e-05 8.64454e-15)
(-4.14214e-11 1.18383e-05 8.40215e-15)
(-4.17394e-11 1.19114e-05 8.66287e-15)
(-4.19773e-11 1.19826e-05 4.46048e-15)
(-4.18831e-11 1.19864e-05 4.43058e-15)
(-4.21208e-11 1.20576e-05 8.65069e-15)
(-4.24384e-11 1.21306e-05 8.39434e-15)
(-4.27565e-11 1.22037e-05 8.6682e-15)
(-4.29943e-11 1.22749e-05 4.45333e-15)
(-4.29001e-11 1.22787e-05 4.43619e-15)
(-4.3138e-11 1.23499e-05 8.64537e-15)
(-4.3455e-11 1.24229e-05 8.39424e-15)
(-4.37752e-11 1.2496e-05 8.67382e-15)
(-4.40074e-11 1.25672e-05 4.43296e-15)
(-4.39258e-11 1.2571e-05 4.47518e-15)
(-4.41387e-11 1.26422e-05 8.5787e-15)
(-4.45019e-11 1.27152e-05 8.56005e-15)
(-4.47493e-11 1.27883e-05 8.57386e-15)
(-4.51128e-11 1.28614e-05 8.60065e-15)
(-4.5326e-11 1.29326e-05 4.50582e-15)
(-4.5244e-11 1.29364e-05 4.4112e-15)
(-4.54762e-11 1.30076e-05 8.66898e-15)
(-4.57962e-11 1.30806e-05 8.39715e-15)
(-4.61136e-11 1.31537e-05 8.67437e-15)
(-4.63516e-11 1.32249e-05 4.45678e-15)
(-4.62573e-11 1.32287e-05 4.43942e-15)
(-4.6495e-11 1.32999e-05 8.65224e-15)
(-4.68128e-11 1.33729e-05 8.40431e-15)
(-4.71309e-11 1.3446e-05 8.66847e-15)
(-4.73688e-11 1.35172e-05 4.45934e-15)
(-4.72745e-11 1.3521e-05 4.43616e-15)
(-4.75122e-11 1.35922e-05 8.65409e-15)
(-4.783e-11 1.36652e-05 8.40072e-15)
(-4.81481e-11 1.37383e-05 8.66972e-15)
(-4.8386e-11 1.38095e-05 4.45628e-15)
(-4.82917e-11 1.38133e-05 4.43803e-15)
(-4.85295e-11 1.38845e-05 8.6512e-15)
(-4.88473e-11 1.39575e-05 8.40167e-15)
(-4.91654e-11 1.40306e-05 8.66677e-15)
(-4.94032e-11 1.41018e-05 4.45723e-15)
(-4.9309e-11 1.41056e-05 4.43617e-15)
(-4.95468e-11 1.41768e-05 8.65182e-15)
(-4.98645e-11 1.42498e-05 8.39944e-15)
(-5.01826e-11 1.43229e-05 8.66686e-15)
(-5.04205e-11 1.43941e-05 4.45547e-15)
(-5.03263e-11 1.43979e-05 4.43683e-15)
(-5.0564e-11 1.44691e-05 8.65021e-15)
(-5.08819e-11 1.45421e-05 8.39927e-15)
(-5.11999e-11 1.46152e-05 8.66518e-15)
(-5.14378e-11 1.46864e-05 4.45531e-15)
(-5.13436e-11 1.46903e-05 4.43615e-15)
(-5.15814e-11 1.47614e-05 8.64975e-15)
(-5.18991e-11 1.48344e-05 8.39824e-15)
(-5.22172e-11 1.49075e-05 8.66423e-15)
(-5.24551e-11 1.49787e-05 4.45471e-15)
(-5.2361e-11 1.49826e-05 4.43573e-15)
(-5.25987e-11 1.50537e-05 8.64927e-15)
(-5.29165e-11 1.51268e-05 8.39707e-15)
(-5.32346e-11 1.51998e-05 8.66369e-15)
(-5.34724e-11 1.5271e-05 4.45361e-15)
(-5.33783e-11 1.52749e-05 4.43576e-15)
(-5.36163e-11 1.5346e-05 8.64936e-15)
(-5.39333e-11 1.54191e-05 8.39214e-15)
(-5.42536e-11 1.54921e-05 8.67429e-15)
(-5.44858e-11 1.55633e-05 4.42896e-15)
(-5.44043e-11 1.55672e-05 4.47895e-15)
(-5.46172e-11 1.56383e-05 8.57885e-15)
(-5.49805e-11 1.57114e-05 8.56177e-15)
(-5.52279e-11 1.57844e-05 8.5709e-15)
(-5.55915e-11 1.58575e-05 8.5988e-15)
(-5.58047e-11 1.59287e-05 4.50181e-15)
(-5.57229e-11 1.59326e-05 4.4133e-15)
(-5.5955e-11 1.60037e-05 8.66818e-15)
(-5.62751e-11 1.60768e-05 8.3966e-15)
(-5.65925e-11 1.61498e-05 8.67085e-15)
(-5.68306e-11 1.6221e-05 4.45468e-15)
(-5.67363e-11 1.62249e-05 4.44007e-15)
(-5.69741e-11 1.6296e-05 8.65284e-15)
(-5.72919e-11 1.63691e-05 8.40294e-15)
(-5.76101e-11 1.64421e-05 8.66603e-15)
(-5.78479e-11 1.65133e-05 4.45685e-15)
(-5.77537e-11 1.65172e-05 4.43721e-15)
(-5.79915e-11 1.65883e-05 8.6547e-15)
(-5.83094e-11 1.66614e-05 8.39947e-15)
(-5.86275e-11 1.67344e-05 8.66782e-15)
(-5.88654e-11 1.68056e-05 4.45346e-15)
(-5.87712e-11 1.68095e-05 4.43981e-15)
(-5.9009e-11 1.68806e-05 8.65103e-15)
(-5.93268e-11 1.69537e-05 8.40172e-15)
(-5.96449e-11 1.70267e-05 8.66379e-15)
(-5.98828e-11 1.70979e-05 4.45609e-15)
(-5.97886e-11 1.71018e-05 4.43627e-15)
(-6.00264e-11 1.71729e-05 8.65368e-15)
(-6.03443e-11 1.7246e-05 8.39756e-15)
(-6.06623e-11 1.7319e-05 8.66638e-15)
(-6.09003e-11 1.73902e-05 4.452e-15)
(-6.08061e-11 1.73941e-05 4.43962e-15)
(-6.10439e-11 1.74652e-05 8.64934e-15)
(-6.13617e-11 1.75383e-05 8.40058e-15)
(-6.16798e-11 1.76113e-05 8.6617e-15)
(-6.19177e-11 1.76825e-05 4.45537e-15)
(-6.18236e-11 1.76864e-05 4.4354e-15)
(-6.20614e-11 1.77575e-05 8.65273e-15)
(-6.23792e-11 1.78306e-05 8.39578e-15)
(-6.26973e-11 1.79036e-05 8.66502e-15)
(-6.29352e-11 1.79749e-05 4.45071e-15)
(-6.2841e-11 1.79787e-05 4.43908e-15)
(-6.3079e-11 1.80498e-05 8.64928e-15)
(-6.33961e-11 1.81229e-05 8.39453e-15)
(-6.37164e-11 1.81959e-05 8.67223e-15)
(-6.39487e-11 1.82672e-05 4.42967e-15)
(-6.38671e-11 1.8271e-05 4.4788e-15)
(-6.40801e-11 1.83422e-05 8.58227e-15)
(-6.44435e-11 1.84152e-05 8.56084e-15)
(-6.46909e-11 1.84883e-05 8.57219e-15)
(-6.50545e-11 1.85613e-05 8.59584e-15)
(-6.52677e-11 1.86325e-05 4.50196e-15)
(-6.51859e-11 1.86364e-05 4.41265e-15)
(-6.54181e-11 1.87075e-05 8.67047e-15)
(-6.57382e-11 1.87806e-05 8.39476e-15)
(-6.60556e-11 1.88536e-05 8.67126e-15)
(-6.62937e-11 1.89249e-05 4.45175e-15)
(-6.61994e-11 1.89287e-05 4.44262e-15)
(-6.64373e-11 1.89998e-05 8.65209e-15)
(-6.67551e-11 1.90729e-05 8.40434e-15)
(-6.70733e-11 1.91459e-05 8.66351e-15)
(-6.73112e-11 1.92172e-05 4.45707e-15)
(-6.7217e-11 1.9221e-05 4.43675e-15)
(-6.74548e-11 1.92922e-05 8.65704e-15)
(-6.77727e-11 1.93652e-05 8.398e-15)
(-6.80908e-11 1.94383e-05 8.6684e-15)
(-6.83287e-11 1.95095e-05 4.45085e-15)
(-6.82345e-11 1.95133e-05 4.44228e-15)
(-6.84723e-11 1.95845e-05 8.65056e-15)
(-6.87902e-11 1.96575e-05 8.40322e-15)
(-6.91083e-11 1.97306e-05 8.66166e-15)
(-6.93462e-11 1.98018e-05 4.45639e-15)
(-6.92521e-11 1.98056e-05 4.43596e-15)
(-6.94899e-11 1.98768e-05 8.65607e-15)
(-6.98078e-11 1.99498e-05 8.3964e-15)
(-7.01258e-11 2.00229e-05 8.66712e-15)
(-7.03638e-11 2.00941e-05 4.44967e-15)
(-7.02696e-11 2.00979e-05 4.44202e-15)
(-7.05074e-11 2.01691e-05 8.64912e-15)
(-7.08253e-11 2.02421e-05 8.40217e-15)
(-7.11434e-11 2.03152e-05 8.65993e-15)
(-7.13813e-11 2.03864e-05 4.45574e-15)
(-7.12872e-11 2.03902e-05 4.43522e-15)
(-7.1525e-11 2.04614e-05 8.65516e-15)
(-7.18429e-11 2.05344e-05 8.39489e-15)
(-7.21609e-11 2.06075e-05 8.66591e-15)
(-7.23989e-11 2.06787e-05 4.44857e-15)
(-7.23048e-11 2.06825e-05 4.44178e-15)
(-7.25426e-11 2.07537e-05 8.64776e-15)
(-7.28604e-11 2.08267e-05 8.40118e-15)
(-7.31785e-11 2.08998e-05 8.65828e-15)
(-7.34164e-11 2.0971e-05 4.45519e-15)
(-7.33223e-11 2.09748e-05 4.43417e-15)
(-7.35603e-11 2.1046e-05 8.65582e-15)
(-7.38775e-11 2.1119e-05 8.3885e-15)
(-7.41977e-11 2.11921e-05 8.67724e-15)
(-7.443e-11 2.12633e-05 4.42251e-15)
(-7.43484e-11 2.12672e-05 4.48576e-15)
(-7.45615e-11 2.13383e-05 8.57692e-15)
(-7.49248e-11 2.14113e-05 8.56696e-15)
(-7.51723e-11 2.14844e-05 8.56503e-15)
(-7.55359e-11 2.15575e-05 8.60037e-15)
(-7.57491e-11 2.16287e-05 4.49409e-15)
(-7.56673e-11 2.16325e-05 4.41946e-15)
(-7.58996e-11 2.17037e-05 8.66397e-15)
(-7.62196e-11 2.17767e-05 8.40039e-15)
(-7.65371e-11 2.18498e-05 8.66314e-15)
(-7.67752e-11 2.1921e-05 4.45684e-15)
(-7.66809e-11 2.19248e-05 4.43649e-15)
(-7.69188e-11 2.1996e-05 8.65874e-15)
(-7.72367e-11 2.2069e-05 8.39691e-15)
(-7.75548e-11 2.21421e-05 8.66879e-15)
(-7.77927e-11 2.22133e-05 4.44889e-15)
(-7.76985e-11 2.22171e-05 4.44411e-15)
(-7.79364e-11 2.22883e-05 8.65023e-15)
(-7.82543e-11 2.23613e-05 8.40432e-15)
(-7.85724e-11 2.24344e-05 8.66006e-15)
(-7.88103e-11 2.25056e-05 4.45658e-15)
(-7.87161e-11 2.25095e-05 4.43574e-15)
(-7.8954e-11 2.25806e-05 8.65785e-15)
(-7.92719e-11 2.26536e-05 8.39553e-15)
(-7.959e-11 2.27267e-05 8.66765e-15)
(-7.98279e-11 2.27979e-05 4.4479e-15)
(-7.97337e-11 2.28018e-05 4.44383e-15)
(-7.99716e-11 2.28729e-05 8.64896e-15)
(-8.02895e-11 2.2946e-05 8.40336e-15)
(-8.06076e-11 2.3019e-05 8.65857e-15)
(-8.08455e-11 2.30902e-05 4.456e-15)
(-8.07514e-11 2.30941e-05 4.43509e-15)
(-8.09892e-11 2.31652e-05 8.657e-15)
(-8.13071e-11 2.32383e-05 8.39422e-15)
(-8.16252e-11 2.33113e-05 8.66657e-15)
(-8.18631e-11 2.33825e-05 4.44697e-15)
(-8.1769e-11 2.33864e-05 4.44357e-15)
(-8.20068e-11 2.34575e-05 8.64776e-15)
(-8.23247e-11 2.35306e-05 8.40245e-15)
(-8.26428e-11 2.36036e-05 8.65714e-15)
(-8.28807e-11 2.36748e-05 4.45552e-15)
(-8.27866e-11 2.36787e-05 4.43412e-15)
(-8.30246e-11 2.37498e-05 8.65771e-15)
(-8.33418e-11 2.38229e-05 8.388e-15)
(-8.3662e-11 2.38959e-05 8.67801e-15)
(-8.38943e-11 2.39671e-05 4.42106e-15)
(-8.38127e-11 2.3971e-05 4.48753e-15)
(-8.40258e-11 2.40421e-05 8.57705e-15)
(-8.43892e-11 2.41152e-05 8.56831e-15)
(-8.46367e-11 2.41883e-05 8.564e-15)
(-8.50002e-11 2.42613e-05 8.60055e-15)
(-8.52135e-11 2.43325e-05 4.4924e-15)
(-8.51317e-11 2.43364e-05 4.42089e-15)
(-8.53639e-11 2.44075e-05 8.66354e-15)
(-8.5684e-11 2.44806e-05 8.40116e-15)
(-8.60015e-11 2.45536e-05 8.66167e-15)
(-8.62396e-11 2.46248e-05 4.45693e-15)
(-8.61453e-11 2.46287e-05 4.43622e-15)
(-8.63832e-11 2.46998e-05 8.66009e-15)
(-8.67011e-11 2.47729e-05 8.39604e-15)
(-8.70192e-11 2.48459e-05 8.6691e-15)
(-8.72572e-11 2.49171e-05 4.44734e-15)
(-8.7163e-11 2.4921e-05 4.44555e-15)
(-8.74008e-11 2.49921e-05 8.64995e-15)
(-8.77187e-11 2.50652e-05 8.40519e-15)
(-8.80369e-11 2.51382e-05 8.65879e-15)
(-8.82748e-11 2.52094e-05 4.45674e-15)
(-8.81806e-11 2.52133e-05 4.43555e-15)
(-8.84184e-11 2.52844e-05 8.65927e-15)
(-8.87364e-11 2.53575e-05 8.39482e-15)
(-8.90545e-11 2.54305e-05 8.66809e-15)
(-8.92924e-11 2.55017e-05 4.44649e-15)
(-8.91982e-11 2.55056e-05 4.44528e-15)
(-8.94361e-11 2.55767e-05 8.64881e-15)
(-8.9754e-11 2.56498e-05 8.40432e-15)
(-9.00721e-11 2.57228e-05 8.65747e-15)
(-9.031e-11 2.57941e-05 4.45623e-15)
(-9.02159e-11 2.57979e-05 4.43496e-15)
(-9.04537e-11 2.58691e-05 8.65848e-15)
(-9.07717e-11 2.59421e-05 8.39365e-15)
(-9.10897e-11 2.60151e-05 8.66712e-15)
(-9.13277e-11 2.60864e-05 4.44567e-15)
(-9.12335e-11 2.60902e-05 4.44502e-15)
(-9.14714e-11 2.61614e-05 8.64773e-15)
(-9.17893e-11 2.62344e-05 8.40349e-15)
(-9.21074e-11 2.63075e-05 8.65621e-15)
(-9.23453e-11 2.63787e-05 4.45574e-15)
(-9.22512e-11 2.63825e-05 4.43439e-15)
(-9.2489e-11 2.64537e-05 8.65773e-15)
(-9.2807e-11 2.65267e-05 8.39253e-15)
(-9.3125e-11 2.65998e-05 8.66619e-15)
(-9.3363e-11 2.6671e-05 4.44495e-15)
(-9.32688e-11 2.66748e-05 4.44442e-15)
(-9.35069e-11 2.6746e-05 8.64821e-15)
(-9.3824e-11 2.6819e-05 8.39774e-15)
(-9.41443e-11 2.68921e-05 8.66747e-15)
(-9.43766e-11 2.69633e-05 4.43027e-15)
(-9.4295e-11 2.69671e-05 4.47806e-15)
(-9.45081e-11 2.70383e-05 8.58745e-15)
(-9.48715e-11 2.71113e-05 8.55818e-15)
(-9.5119e-11 2.71844e-05 8.57343e-15)
(-9.54825e-11 2.72575e-05 8.58933e-15)
(-9.56957e-11 2.73287e-05 4.50156e-15)
(-9.5614e-11 2.73325e-05 4.41095e-15)
(-9.58462e-11 2.74037e-05 8.67363e-15)
(-9.61664e-11 2.74767e-05 8.39036e-15)
(-9.64838e-11 2.75498e-05 8.6709e-15)
(-9.67219e-11 2.7621e-05 4.4457e-15)
(-9.66277e-11 2.76248e-05 4.44681e-15)
(-9.68655e-11 2.7696e-05 8.64967e-15)
(-9.71835e-11 2.7769e-05 8.40593e-15)
(-9.75016e-11 2.78421e-05 8.65772e-15)
(-9.77395e-11 2.79133e-05 4.45691e-15)
(-9.76454e-11 2.79171e-05 4.43534e-15)
(-9.78832e-11 2.79883e-05 8.66046e-15)
(-9.82011e-11 2.80613e-05 8.3942e-15)
(-9.85192e-11 2.81344e-05 8.66848e-15)
(-9.87572e-11 2.82056e-05 4.4453e-15)
(-9.8663e-11 2.82094e-05 4.44649e-15)
(-9.89009e-11 2.82806e-05 8.64864e-15)
(-9.92188e-11 2.83536e-05 8.40514e-15)
(-9.95369e-11 2.84267e-05 8.65654e-15)
(-9.97748e-11 2.84979e-05 4.45646e-15)
(-9.96807e-11 2.85017e-05 4.4348e-15)
(-9.99185e-11 2.85729e-05 8.65973e-15)
(-1.00236e-10 2.86459e-05 8.39315e-15)
(-1.00555e-10 2.8719e-05 8.66761e-15)
(-1.00792e-10 2.87902e-05 4.44457e-15)
(-1.00698e-10 2.8794e-05 4.44624e-15)
(-1.00936e-10 2.88652e-05 8.64765e-15)
(-1.01254e-10 2.89382e-05 8.40439e-15)
(-1.01572e-10 2.90113e-05 8.6554e-15)
(-1.0181e-10 2.90825e-05 4.45602e-15)
(-1.01716e-10 2.90864e-05 4.43429e-15)
(-1.01954e-10 2.91575e-05 8.65903e-15)
(-1.02272e-10 2.92305e-05 8.39213e-15)
(-1.0259e-10 2.93036e-05 8.66676e-15)
(-1.02828e-10 2.93748e-05 4.44393e-15)
(-1.02734e-10 2.93787e-05 4.44565e-15)
(-1.02972e-10 2.94498e-05 8.64822e-15)
(-1.03289e-10 2.95229e-05 8.3987e-15)
(-1.03609e-10 2.95959e-05 8.66677e-15)
(-1.03841e-10 2.96671e-05 4.4306e-15)
(-1.0376e-10 2.9671e-05 4.47799e-15)
(-1.03973e-10 2.97421e-05 8.5888e-15)
(-1.04336e-10 2.98152e-05 8.55787e-15)
(-1.04584e-10 2.98882e-05 8.57403e-15)
(-1.04947e-10 2.99613e-05 8.58828e-15)
(-1.05161e-10 3.00325e-05 4.5017e-15)
(-1.05079e-10 3.00363e-05 4.41069e-15)
(-1.05311e-10 3.01075e-05 8.6746e-15)
(-1.05631e-10 3.01805e-05 8.3897e-15)
(-1.05949e-10 3.02536e-05 8.6712e-15)
(-1.06187e-10 3.03248e-05 4.44459e-15)
(-1.06093e-10 3.03287e-05 4.44785e-15)
(-1.0633e-10 3.03998e-05 8.64939e-15)
(-1.06648e-10 3.04728e-05 8.40659e-15)
(-1.06967e-10 3.05459e-05 8.65679e-15)
(-1.07204e-10 3.06171e-05 4.45711e-15)
(-1.0711e-10 3.0621e-05 4.43513e-15)
(-1.07348e-10 3.06921e-05 8.66148e-15)
(-1.07666e-10 3.07652e-05 8.39364e-15)
(-1.07984e-10 3.08382e-05 8.66886e-15)
(-1.08222e-10 3.09094e-05 4.44426e-15)
(-1.08128e-10 3.09133e-05 4.44754e-15)
(-1.08366e-10 3.09844e-05 8.64845e-15)
(-1.08684e-10 3.10575e-05 8.40587e-15)
(-1.09002e-10 3.11305e-05 8.65571e-15)
(-1.0924e-10 3.12017e-05 4.4567e-15)
(-1.09146e-10 3.12056e-05 4.43463e-15)
(-1.09383e-10 3.12767e-05 8.66081e-15)
(-1.09701e-10 3.13498e-05 8.39268e-15)
(-1.10019e-10 3.14228e-05 8.66807e-15)
(-1.10257e-10 3.1494e-05 4.44361e-15)
(-1.10163e-10 3.14979e-05 4.44731e-15)
(-1.10401e-10 3.1569e-05 8.64754e-15)
(-1.10719e-10 3.16421e-05 8.40518e-15)
(-1.11037e-10 3.17151e-05 8.65468e-15)
(-1.11275e-10 3.17863e-05 4.45631e-15)
(-1.11181e-10 3.17902e-05 4.43414e-15)
(-1.11419e-10 3.18613e-05 8.66017e-15)
(-1.11737e-10 3.19344e-05 8.39174e-15)
(-1.12055e-10 3.20074e-05 8.66731e-15)
(-1.12293e-10 3.20786e-05 4.44297e-15)
(-1.12199e-10 3.20825e-05 4.44709e-15)
(-1.12437e-10 3.21536e-05 8.64666e-15)
(-1.12754e-10 3.22267e-05 8.40452e-15)
(-1.13073e-10 3.22997e-05 8.65367e-15)
(-1.1331e-10 3.2371e-05 4.456e-15)
(-1.13216e-10 3.23748e-05 4.43332e-15)
(-1.13454e-10 3.24459e-05 8.66108e-15)
(-1.13772e-10 3.2519e-05 8.38588e-15)
(-1.14092e-10 3.2592e-05 8.67903e-15)
(-1.14324e-10 3.26633e-05 4.41735e-15)
(-1.14243e-10 3.26671e-05 4.49108e-15)
(-1.14456e-10 3.27383e-05 8.57623e-15)
(-1.14819e-10 3.28113e-05 8.5706e-15)
(-1.15067e-10 3.28844e-05 8.56072e-15)
(-1.1543e-10 3.29574e-05 8.60038e-15)
(-1.15643e-10 3.30286e-05 4.48813e-15)
(-1.15562e-10 3.30325e-05 4.42376e-15)
(-1.15794e-10 3.31036e-05 8.66153e-15)
(-1.16114e-10 3.31767e-05 8.40227e-15)
(-1.16431e-10 3.32497e-05 8.65746e-15)
(-1.16669e-10 3.3321e-05 4.45698e-15)
(-1.16575e-10 3.33248e-05 4.43495e-15)
(-1.16813e-10 3.33959e-05 8.6624e-15)
(-1.17131e-10 3.3469e-05 8.39312e-15)
(-1.17449e-10 3.3542e-05 8.66924e-15)
(-1.17687e-10 3.36133e-05 4.44334e-15)
(-1.17593e-10 3.36171e-05 4.44849e-15)
(-1.17831e-10 3.36883e-05 8.64824e-15)
(-1.18149e-10 3.37613e-05 8.40655e-15)
(-1.18467e-10 3.38343e-05 8.65497e-15)
(-1.18705e-10 3.39056e-05 4.45697e-15)
(-1.18611e-10 3.39094e-05 4.43442e-15)
(-1.18849e-10 3.39806e-05 8.66179e-15)
(-1.19166e-10 3.40536e-05 8.39223e-15)
(-1.19485e-10 3.41267e-05 8.66852e-15)
(-1.19722e-10 3.41979e-05 4.44274e-15)
(-1.19628e-10 3.42017e-05 4.44827e-15)
(-1.19866e-10 3.42729e-05 8.64739e-15)
(-1.20184e-10 3.43459e-05 8.40592e-15)
(-1.20502e-10 3.4419e-05 8.65401e-15)
(-1.2074e-10 3.44902e-05 4.45662e-15)
(-1.20646e-10 3.4494e-05 4.43396e-15)
(-1.20884e-10 3.45652e-05 8.6612e-15)
(-1.21202e-10 3.46382e-05 8.39136e-15)
(-1.2152e-10 3.47113e-05 8.66782e-15)
(-1.21758e-10 3.47825e-05 4.44215e-15)
(-1.21664e-10 3.47863e-05 4.44806e-15)
(-1.21902e-10 3.48575e-05 8.64656e-15)
(-1.2222e-10 3.49305e-05 8.40531e-15)
(-1.22538e-10 3.50036e-05 8.65308e-15)
(-1.22776e-10 3.50748e-05 4.45635e-15)
(-1.22681e-10 3.50786e-05 4.43317e-15)
(-1.22919e-10 3.51498e-05 8.66215e-15)
(-1.23237e-10 3.52228e-05 8.38556e-15)
(-1.23557e-10 3.52959e-05 8.67961e-15)
(-1.23789e-10 3.53671e-05 4.41658e-15)
(-1.23708e-10 3.53709e-05 4.49207e-15)
(-1.23921e-10 3.54421e-05 8.57618e-15)
(-1.24284e-10 3.55151e-05 8.57144e-15)
(-1.24532e-10 3.55882e-05 8.56016e-15)
(-1.24895e-10 3.56613e-05 8.6007e-15)
(-1.25108e-10 3.57325e-05 4.48724e-15)
(-1.25027e-10 3.57363e-05 4.42461e-15)
(-1.25259e-10 3.58075e-05 8.66124e-15)
(-1.25579e-10 3.58805e-05 8.40286e-15)
(-1.25896e-10 3.59536e-05 8.65669e-15)
(-1.26135e-10 3.60248e-05 4.45724e-15)
(-1.2604e-10 3.60286e-05 4.43469e-15)
(-1.26278e-10 3.60998e-05 8.66325e-15)
(-1.26596e-10 3.61728e-05 8.39262e-15)
(-1.26914e-10 3.62459e-05 8.66963e-15)
(-1.27152e-10 3.63171e-05 4.4425e-15)
(-1.27058e-10 3.63209e-05 4.44936e-15)
(-1.27296e-10 3.63921e-05 8.648e-15)
(-1.27614e-10 3.64651e-05 8.40719e-15)
(-1.27932e-10 3.65382e-05 8.65427e-15)
(-1.2817e-10 3.66094e-05 4.45726e-15)
(-1.28076e-10 3.66132e-05 4.43419e-15)
(-1.28314e-10 3.66844e-05 8.66269e-15)
(-1.28632e-10 3.67574e-05 8.39178e-15)
(-1.2895e-10 3.68305e-05 8.66897e-15)
(-1.29188e-10 3.69017e-05 4.44194e-15)
(-1.29093e-10 3.69056e-05 4.44916e-15)
(-1.29331e-10 3.69767e-05 8.6472e-15)
(-1.29649e-10 3.70497e-05 8.40661e-15)
(-1.29967e-10 3.71228e-05 8.65339e-15)
(-1.30205e-10 3.7194e-05 4.45695e-15)
(-1.30111e-10 3.71979e-05 4.43375e-15)
(-1.30349e-10 3.7269e-05 8.66214e-15)
(-1.30667e-10 3.73421e-05 8.39097e-15)
(-1.30985e-10 3.74151e-05 8.66833e-15)
(-1.31223e-10 3.74863e-05 4.44139e-15)
(-1.31129e-10 3.74902e-05 4.44897e-15)
(-1.31367e-10 3.75613e-05 8.64642e-15)
(-1.31685e-10 3.76344e-05 8.40605e-15)
(-1.32003e-10 3.77074e-05 8.65252e-15)
(-1.32241e-10 3.77786e-05 4.45665e-15)
(-1.32147e-10 3.77825e-05 4.43333e-15)
(-1.32384e-10 3.78536e-05 8.66161e-15)
(-1.32702e-10 3.79267e-05 8.39019e-15)
(-1.3302e-10 3.79997e-05 8.66771e-15)
(-1.33258e-10 3.80709e-05 4.44093e-15)
(-1.33164e-10 3.80748e-05 4.44843e-15)
(-1.33402e-10 3.81459e-05 8.64719e-15)
(-1.33719e-10 3.8219e-05 8.40054e-15)
(-1.3404e-10 3.8292e-05 8.66414e-15)
(-1.34272e-10 3.83632e-05 4.43136e-15)
(-1.3419e-10 3.83671e-05 4.47712e-15)
(-1.34404e-10 3.84382e-05 8.59152e-15)
(-1.34767e-10 3.85113e-05 8.55613e-15)
(-1.35014e-10 3.85844e-05 8.57505e-15)
(-1.35378e-10 3.86574e-05 8.58486e-15)
(-1.35591e-10 3.87286e-05 4.50204e-15)
(-1.3551e-10 3.87325e-05 4.40939e-15)
(-1.35742e-10 3.88036e-05 8.67647e-15)
(-1.36062e-10 3.88767e-05 8.38718e-15)
(-1.36379e-10 3.89497e-05 8.67153e-15)
(-1.36617e-10 3.90209e-05 4.44136e-15)
(-1.36523e-10 3.90248e-05 4.45023e-15)
(-1.36761e-10 3.90959e-05 8.64772e-15)
(-1.37079e-10 3.9169e-05 8.40781e-15)
(-1.37397e-10 3.9242e-05 8.65361e-15)
(-1.37635e-10 3.93132e-05 4.45757e-15)
(-1.37541e-10 3.93171e-05 4.43393e-15)
(-1.37779e-10 3.93882e-05 8.66352e-15)
(-1.38097e-10 3.94613e-05 8.39134e-15)
(-1.38415e-10 3.95343e-05 8.66942e-15)
(-1.38653e-10 3.96055e-05 4.44119e-15)
(-1.38559e-10 3.96094e-05 4.44998e-15)
(-1.38796e-10 3.96805e-05 8.64698e-15)
(-1.39114e-10 3.97536e-05 8.40727e-15)
(-1.39433e-10 3.98266e-05 8.65279e-15)
(-1.3967e-10 3.98978e-05 4.45729e-15)
(-1.39576e-10 3.99017e-05 4.43351e-15)
(-1.39814e-10 3.99728e-05 8.66301e-15)
(-1.40132e-10 4.00459e-05 8.39058e-15)
(-1.4045e-10 4.01189e-05 8.66883e-15)
(-1.40688e-10 4.01902e-05 4.44068e-15)
(-1.40594e-10 4.0194e-05 4.44981e-15)
(-1.40832e-10 4.02651e-05 8.64624e-15)
(-1.4115e-10 4.03382e-05 8.40675e-15)
(-1.41468e-10 4.04112e-05 8.65198e-15)
(-1.41706e-10 4.04825e-05 4.45702e-15)
(-1.41612e-10 4.04863e-05 4.43311e-15)
(-1.4185e-10 4.05575e-05 8.66252e-15)
(-1.42168e-10 4.06305e-05 8.38984e-15)
(-1.42486e-10 4.07036e-05 8.66825e-15)
(-1.42724e-10 4.07748e-05 4.44025e-15)
(-1.42629e-10 4.07786e-05 4.44929e-15)
(-1.42867e-10 4.08498e-05 8.64705e-15)
(-1.43185e-10 4.09228e-05 8.40128e-15)
(-1.43505e-10 4.09959e-05 8.66364e-15)
(-1.43737e-10 4.10671e-05 4.43176e-15)
(-1.43656e-10 4.10709e-05 4.47692e-15)
(-1.43869e-10 4.11421e-05 8.59246e-15)
(-1.44232e-10 4.12151e-05 8.55582e-15)
(-1.4448e-10 4.12882e-05 8.57561e-15)
(-1.44843e-10 4.13612e-05 8.58418e-15)
(-1.45056e-10 4.14325e-05 4.50235e-15)
(-1.44975e-10 4.14363e-05 4.40909e-15)
(-1.45207e-10 4.15075e-05 8.67723e-15)
(-1.45527e-10 4.15805e-05 8.38669e-15)
(-1.45844e-10 4.16535e-05 8.67194e-15)
(-1.46083e-10 4.17248e-05 4.44062e-15)
(-1.45988e-10 4.17286e-05 4.451e-15)
(-1.46226e-10 4.17998e-05 8.64743e-15)
(-1.46544e-10 4.18728e-05 8.40841e-15)
(-1.46862e-10 4.19459e-05 8.65298e-15)
(-1.471e-10 4.20171e-05 4.45791e-15)
(-1.47006e-10 4.20209e-05 4.43364e-15)
(-1.47244e-10 4.20921e-05 8.66431e-15)
(-1.47562e-10 4.21651e-05 8.3909e-15)
(-1.4788e-10 4.22382e-05 8.66987e-15)
(-1.48118e-10 4.23094e-05 4.44048e-15)
(-1.48024e-10 4.23132e-05 4.45077e-15)
(-1.48262e-10 4.23844e-05 8.64673e-15)
(-1.4858e-10 4.24574e-05 8.4079e-15)
(-1.48898e-10 4.25305e-05 8.6522e-15)
(-1.49136e-10 4.26017e-05 4.45765e-15)
(-1.49042e-10 4.26055e-05 4.43325e-15)
(-1.49279e-10 4.26767e-05 8.66384e-15)
(-1.49597e-10 4.27497e-05 8.39018e-15)
(-1.49915e-10 4.28228e-05 8.66932e-15)
(-1.50153e-10 4.2894e-05 4.44e-15)
(-1.50059e-10 4.28978e-05 4.4506e-15)
(-1.50297e-10 4.2969e-05 8.64603e-15)
(-1.50615e-10 4.3042e-05 8.40742e-15)
(-1.50933e-10 4.31151e-05 8.65144e-15)
(-1.51171e-10 4.31863e-05 4.45741e-15)
(-1.51077e-10 4.31901e-05 4.43286e-15)
(-1.51315e-10 4.32613e-05 8.66337e-15)
(-1.51633e-10 4.33343e-05 8.38948e-15)
(-1.51951e-10 4.34074e-05 8.6688e-15)
(-1.52189e-10 4.34786e-05 4.43953e-15)
(-1.52095e-10 4.34825e-05 4.45045e-15)
(-1.52332e-10 4.35536e-05 8.64535e-15)
(-1.5265e-10 4.36266e-05 8.40695e-15)
(-1.52969e-10 4.36997e-05 8.65069e-15)
(-1.53206e-10 4.37709e-05 4.45723e-15)
(-1.53112e-10 4.37748e-05 4.43213e-15)
(-1.5335e-10 4.38459e-05 8.66445e-15)
(-1.53668e-10 4.3919e-05 8.38383e-15)
(-1.53988e-10 4.3992e-05 8.68074e-15)
(-1.5422e-10 4.40632e-05 4.41408e-15)
(-1.54139e-10 4.40671e-05 4.4945e-15)
(-1.54352e-10 4.41382e-05 8.5751e-15)