/*--------------------------------*- C++ -*----------------------------------*\
| =========                 |                                                 |
| \\      /  F ield         | OpenFOAM: The Open Source CFD Toolbox           |
|  \\    /   O peration     | Version:  2206                                  |
|   \\  /    A nd           | Website:  www.openfoam.com                      |
|    \\/     M anipulation  |                                                 |
\*---------------------------------------------------------------------------*/
FoamFile
{
    version     2.0;
    format      ascii;
    arch        "LSB;label=32;scalar=64";
    class       volScalarField;
    location    "40";
    object      p;
}
// * * * * * * * * * * * * * * * * * * * * * * * * * * * * * * * * * * * * * //

dimensions      [0 2 -2 0 0 0 0];

internalField   nonuniform List<scalar> 
50000
(
1.34344e-08
3.93772e-08
6.31269e-08
7.90221e-08
6.60321e-08
5.06364e-08
2.60891e-08
1.00899e-08
3.18026e-09
-9.31221e-10
-2.17635e-09
-1.9239e-09
7.84549e-09
1.57547e-08
3.00674e-08
4.58726e-08
6.54463e-08
8.72451e-08
1.12321e-07
1.39436e-07
1.69707e-07
2.01855e-07
2.3702e-07
2.73987e-07
3.13825e-07
3.55435e-07
3.99781e-07
4.4589e-07
4.94619e-07
5.45108e-07
5.98123e-07
6.529e-07
7.10121e-07
7.6911e-07
8.30474e-07
8.93613e-07
9.5907e-07
1.02631e-06
1.09581e-06
1.16711e-06
1.24063e-06
1.31594e-06
1.39345e-06
1.47276e-06
1.55423e-06
1.6375e-06
1.72291e-06
1.81013e-06
1.89946e-06
1.99061e-06
2.08385e-06
2.17891e-06
2.27604e-06
2.375e-06
2.47601e-06
2.57886e-06
2.68374e-06
2.79047e-06
2.89922e-06
3.00981e-06
3.12242e-06
3.23687e-06
3.35332e-06
3.47163e-06
3.59193e-06
3.71408e-06
3.83822e-06
3.96421e-06
4.09219e-06
4.22202e-06
4.35383e-06
4.48749e-06
4.62312e-06
4.76061e-06
4.90007e-06
5.04139e-06
5.18467e-06
5.3298e-06
5.4769e-06
5.62586e-06
5.77677e-06
5.92955e-06
6.08427e-06
6.24086e-06
6.3994e-06
6.5598e-06
6.72215e-06
6.88636e-06
7.05252e-06
7.22054e-06
7.3905e-06
7.56233e-06
7.7361e-06
7.91173e-06
8.0893e-06
8.26875e-06
8.45012e-06
8.63336e-06
8.81854e-06
9.00559e-06
9.19456e-06
9.38541e-06
9.57819e-06
9.77284e-06
9.96941e-06
1.01679e-05
1.03682e-05
1.05705e-05
1.07746e-05
1.09807e-05
1.11887e-05
1.13985e-05
1.16103e-05
1.18239e-05
1.20395e-05
1.22569e-05
1.24763e-05
1.26975e-05
1.29206e-05
1.31457e-05
1.33726e-05
1.36014e-05
1.38322e-05
1.40648e-05
1.42993e-05
1.45357e-05
1.4774e-05
1.50142e-05
1.52564e-05
1.55003e-05
1.57463e-05
1.5994e-05
1.62437e-05
1.64953e-05
1.67488e-05
1.70042e-05
1.72615e-05
1.75206e-05
1.77817e-05
1.80446e-05
1.83095e-05
1.85763e-05
1.88449e-05
1.91154e-05
1.93879e-05
1.96622e-05
1.99384e-05
2.02166e-05
2.04966e-05
2.07785e-05
2.10623e-05
2.1348e-05
2.16356e-05
2.19251e-05
2.22165e-05
2.25097e-05
2.28049e-05
2.3102e-05
2.3401e-05
2.37018e-05
2.40046e-05
2.43092e-05
2.46158e-05
2.49242e-05
2.52345e-05
2.55467e-05
2.58609e-05
2.61769e-05
2.64948e-05
2.68146e-05
2.71363e-05
2.74599e-05
2.77854e-05
2.81127e-05
2.8442e-05
2.87732e-05
2.91062e-05
2.94412e-05
2.9778e-05
3.01168e-05
3.04574e-05
3.07999e-05
3.11444e-05
3.14907e-05
3.18389e-05
3.2189e-05
3.2541e-05
3.28949e-05
3.32507e-05
3.36084e-05
3.39679e-05
3.43294e-05
3.46928e-05
3.5058e-05
3.54252e-05
3.57942e-05
3.61651e-05
3.6538e-05
3.69127e-05
3.72893e-05
3.76678e-05
3.80482e-05
3.84305e-05
3.88147e-05
3.92008e-05
3.95888e-05
3.99786e-05
4.03704e-05
4.07641e-05
4.11596e-05
4.15571e-05
4.19564e-05
4.23576e-05
4.27607e-05
4.31658e-05
4.35727e-05
4.39815e-05
4.43922e-05
4.48048e-05
4.52192e-05
4.56356e-05
4.60539e-05
4.64741e-05
4.68961e-05
4.73201e-05
4.77459e-05
4.81736e-05
4.86033e-05
4.90348e-05
4.94682e-05
4.99035e-05
5.03407e-05
5.07798e-05
5.12208e-05
5.16637e-05
5.21085e-05
5.25551e-05
5.30037e-05
5.34541e-05
5.39065e-05
5.43607e-05
5.48169e-05
5.52749e-05
5.57348e-05
5.61966e-05
5.66603e-05
5.71259e-05
5.75934e-05
5.80628e-05
5.85341e-05
5.90073e-05
5.94823e-05
5.99593e-05
6.04381e-05
6.09189e-05
6.14015e-05
6.18861e-05
6.23725e-05
6.28608e-05
6.3351e-05
6.38431e-05
6.43371e-05
6.4833e-05
6.53308e-05
6.58304e-05
6.6332e-05
6.68355e-05
6.73408e-05
6.78481e-05
6.83572e-05
6.88682e-05
6.93812e-05
6.9896e-05
7.04127e-05
7.09313e-05
7.14518e-05
7.19742e-05
7.24985e-05
7.30246e-05
7.35527e-05
7.40827e-05
7.46145e-05
7.51483e-05
7.56839e-05
7.62214e-05
7.67609e-05
7.73022e-05
7.78454e-05
7.83905e-05
7.89375e-05
7.94864e-05
8.00372e-05
8.05898e-05
8.11444e-05
8.17009e-05
8.22592e-05
8.28195e-05
8.33816e-05
8.39457e-05
8.45116e-05
8.50794e-05
8.56491e-05
8.62207e-05
8.67942e-05
8.73696e-05
8.79469e-05
8.85261e-05
8.91071e-05
8.96901e-05
9.0275e-05
9.08617e-05
9.14503e-05
9.20409e-05
9.26333e-05
9.32276e-05
9.38238e-05
9.44219e-05
9.50219e-05
9.56238e-05
9.62276e-05
9.68333e-05
9.74408e-05
9.80503e-05
9.86617e-05
9.92749e-05
9.98901e-05
0.000100507
0.000101126
0.000101747
0.00010237
0.000102994
0.000103621
0.000104249
0.000104879
0.000105511
0.000106146
0.000106782
0.000107419
0.000108059
0.000108701
0.000109344
0.00010999
0.000110637
0.000111286
0.000111937
0.00011259
0.000113245
0.000113902
0.000114561
0.000115221
0.000115884
0.000116548
0.000117214
0.000117882
0.000118552
0.000119224
0.000119898
0.000120574
0.000121252
0.000121931
0.000122612
0.000123296
0.000123981
0.000124668
0.000125357
0.000126048
0.00012674
0.000127435
0.000128132
0.00012883
0.00012953
0.000130233
0.000130937
0.000131643
0.000132351
0.00013306
0.000133772
0.000134486
0.000135201
0.000135918
0.000136638
0.000137359
0.000138082
0.000138807
0.000139534
0.000140262
0.000140993
0.000141725
0.00014246
0.000143196
0.000143934
0.000144674
0.000145416
0.00014616
0.000146906
0.000147653
0.000148403
0.000149154
0.000149908
0.000150663
0.00015142
0.000152179
0.00015294
0.000153703
0.000154467
0.000155234
0.000156002
0.000156773
0.000157545
0.000158319
0.000159095
0.000159873
0.000160653
0.000161434
0.000162218
0.000163004
0.000163791
0.00016458
0.000165371
0.000166164
0.000166959
0.000167756
0.000168555
0.000169356
0.000170158
0.000170962
0.000171769
0.000172577
0.000173387
0.000174199
0.000175013
0.000175829
0.000176646
0.000177466
0.000178287
0.000179111
0.000179936
0.000180763
0.000181592
0.000182423
0.000183256
0.000184091
0.000184927
0.000185766
0.000186606
0.000187448
0.000188292
0.000189138
0.000189986
0.000190836
0.000191688
0.000192542
0.000193397
0.000194255
0.000195114
0.000195975
0.000196838
0.000197703
0.00019857
0.000199439
0.000200309
0.000201182
0.000202056
0.000202933
0.000203811
0.000204691
0.000205573
0.000206457
0.000207343
0.00020823
0.00020912
0.000210012
0.000210905
0.0002118
0.000212697
0.000213596
0.000214497
0.0002154
0.000216305
0.000217211
0.00021812
0.00021903
0.000219943
0.000220857
0.000221773
0.000222691
0.000223611
0.000224533
0.000225456
0.000226382
0.000227309
0.000228239
0.00022917
0.000230103
0.000231038
0.000231975
0.000232914
0.000233854
0.000234797
0.000235741
0.000236688
0.000237636
0.000238586
0.000239538
0.000240492
0.000241448
0.000242406
0.000243365
0.000244327
0.00024529
0.000246255
0.000247223
0.000248192
0.000249163
0.000250136
0.00025111
0.000252087
0.000253065
0.000254046
0.000255028
0.000256012
0.000256999
0.000257987
0.000258976
0.000259968
0.000260962
0.000261958
0.000262955
0.000263954
0.000264956
0.000265959
0.000266964
0.000267971
0.00026898
0.00026999
0.000271003
0.000272017
0.000273034
0.000274052
0.000275072
0.000276094
0.000277118
0.000278144
0.000279172
0.000280202
0.000281233
0.000282266
0.000283302
0.000284339
0.000285378
0.000286419
0.000287462
0.000288507
0.000289553
0.000290602
0.000291652
0.000292705
0.000293759
0.000294815
0.000295873
0.000296933
0.000297995
0.000299059
0.000300124
0.000301192
0.000302261
0.000303332
0.000304406
0.000305481
0.000306558
0.000307637
0.000308717
0.0003098
0.000310884
0.000311971
0.000313059
0.000314149
0.000315242
0.000316336
0.000317431
0.000318529
0.000319629
0.00032073
0.000321834
0.000322939
0.000324046
0.000325156
0.000326267
0.00032738
0.000328494
0.000329611
0.00033073
0.00033185
0.000332973
0.000334097
0.000335223
0.000336351
0.000337481
0.000338613
0.000339747
0.000340882
0.00034202
0.000343159
0.0003443
0.000345444
0.000346589
0.000347736
0.000348885
0.000350035
0.000351188
0.000352343
0.000353499
0.000354657
0.000355818
0.00035698
0.000358144
0.00035931
0.000360478
0.000361647
0.000362819
0.000363992
0.000365168
0.000366345
0.000367524
0.000368705
0.000369888
0.000371073
0.00037226
0.000373448
0.000374639
0.000375831
0.000377026
0.000378222
0.00037942
0.00038062
0.000381822
0.000383025
0.000384231
0.000385439
0.000386648
0.000387859
0.000389073
0.000390288
0.000391505
0.000392724
0.000393945
0.000395167
0.000396392
0.000397618
0.000398847
0.000400077
0.000401309
0.000402543
0.000403779
0.000405017
0.000406257
0.000407498
0.000408742
0.000409987
0.000411234
0.000412484
0.000413735
0.000414988
0.000416243
0.000417499
0.000418758
0.000420019
0.000421281
0.000422545
0.000423812
0.00042508
0.00042635
0.000427622
0.000428895
0.000430171
0.000431449
0.000432728
0.000434009
0.000435293
0.000436578
0.000437865
0.000439154
0.000440445
0.000441737
0.000443032
0.000444329
0.000445627
0.000446927
0.000448229
0.000449533
0.000450839
0.000452147
0.000453457
0.000454769
0.000456082
0.000457398
0.000458715
0.000460034
0.000461355
0.000462678
0.000464003
0.00046533
0.000466659
0.000467989
0.000469322
0.000470656
0.000471992
0.000473331
0.000474671
0.000476013
0.000477356
0.000478702
0.00048005
0.000481399
0.000482751
0.000484104
0.000485459
0.000486816
0.000488175
0.000489536
0.000490899
0.000492263
0.00049363
0.000494998
0.000496369
0.000497741
0.000499115
0.000500491
0.000501869
0.000503249
0.00050463
0.000506014
0.000507399
0.000508787
0.000510176
0.000511567
0.00051296
0.000514355
0.000515752
0.000517151
0.000518551
0.000519954
0.000521358
0.000522764
0.000524172
0.000525583
0.000526994
0.000528408
0.000529824
0.000531242
0.000532661
0.000534083
0.000535506
0.000536931
0.000538358
0.000539787
0.000541218
0.000542651
0.000544086
0.000545522
0.000546961
0.000548401
0.000549843
0.000551287
0.000552733
0.000554181
0.000555631
0.000557083
0.000558536
0.000559992
0.000561449
0.000562909
0.00056437
0.000565833
0.000567298
0.000568765
0.000570233
0.000571704
0.000573176
0.000574651
0.000576127
0.000577605
0.000579086
0.000580568
0.000582051
0.000583537
0.000585025
0.000586514
0.000588006
0.000589499
0.000590994
0.000592492
0.000593991
0.000595491
0.000596994
0.000598499
0.000600006
0.000601514
0.000603024
0.000604537
0.000606051
0.000607567
0.000609085
0.000610605
0.000612126
0.00061365
0.000615176
0.000616703
0.000618232
0.000619763
0.000621297
0.000622832
0.000624368
0.000625907
0.000627448
0.00062899
0.000630535
0.000632081
0.000633629
0.00063518
0.000636732
0.000638285
0.000639841
0.000641399
0.000642959
0.00064452
0.000646083
0.000647649
0.000649216
0.000650785
0.000652356
0.000653929
0.000655503
0.00065708
0.000658659
0.000660239
0.000661821
0.000663405
0.000664991
0.000666579
0.000668169
0.000669761
0.000671355
0.00067295
0.000674548
0.000676147
0.000677748
0.000679351
0.000680956
0.000682563
0.000684172
0.000685783
0.000687395
0.00068901
0.000690626
0.000692244
0.000693865
0.000695487
0.000697111
0.000698736
0.000700364
0.000701994
0.000703625
0.000705259
0.000706894
0.000708531
0.00071017
0.000711811
0.000713454
0.000715099
0.000716745
0.000718394
0.000720044
0.000721697
0.000723351
0.000725007
0.000726665
0.000728325
0.000729987
0.00073165
0.000733316
0.000734983
0.000736653
0.000738324
0.000739997
0.000741672
0.000743349
0.000745028
0.000746709
0.000748391
0.000750076
0.000751762
0.000753451
0.000755141
0.000756833
0.000758527
0.000760223
0.00076192
0.00076362
0.000765322
0.000767025
0.00076873
0.000770437
0.000772147
0.000773858
0.00077557
0.000777285
0.000779002
0.000780721
0.000782441
0.000784163
0.000785888
0.000787614
0.000789342
0.000791072
0.000792803
0.000794537
0.000796273
0.00079801
0.00079975
0.000801491
0.000803234
0.000804979
0.000806726
0.000808475
0.000810226
0.000811978
0.000813733
0.000815489
0.000817248
0.000819008
0.00082077
0.000822534
0.0008243
0.000826068
0.000827837
0.000829609
0.000831382
0.000833158
0.000834935
0.000836714
0.000838495
0.000840278
0.000842063
0.000843849
0.000845638
0.000847429
0.000849221
0.000851015
0.000852811
0.000854609
0.000856409
0.000858211
0.000860015
0.000861821
0.000863628
0.000865438
0.000867249
0.000869062
0.000870877
0.000872694
0.000874513
0.000876334
0.000878156
0.000879981
0.000881807
0.000883636
0.000885466
0.000887298
0.000889132
0.000890968
0.000892806
0.000894646
0.000896487
0.000898331
0.000900176
0.000902023
0.000903872
0.000905724
0.000907577
0.000909431
0.000911288
0.000913147
0.000915007
0.00091687
0.000918734
0.0009206
0.000922468
0.000924338
0.00092621
0.000928084
0.000929959
0.000931837
0.000933716
0.000935598
0.000937481
0.000939366
0.000941253
0.000943142
0.000945033
0.000946926
0.00094882
0.000950717
0.000952615
0.000954515
0.000956417
0.000958321
0.000960227
0.000962135
0.000964045
0.000965957
0.00096787
0.000969786
0.000971703
0.000973622
0.000975543
0.000977466
0.000979391
0.000981318
0.000983246
0.000985177
0.000987109
0.000989044
0.00099098
0.000992918
0.000994858
0.0009968
0.000998744
0.00100069
0.00100264
0.00100459
0.00100654
0.00100849
0.00101045
0.0010124
0.00101436
0.00101632
0.00101829
0.00102025
0.00102222
0.00102419
0.00102616
0.00102813
0.0010301
0.00103208
0.00103406
0.00103604
0.00103802
0.00104
0.00104199
0.00104397
0.00104596
0.00104795
0.00104995
0.00105194
0.00105394
0.00105594
0.00105794
0.00105994
0.00106194
0.00106395
0.00106596
0.00106797
0.00106998
0.00107199
0.00107401
0.00107603
0.00107805
0.00108007
0.00108209
0.00108412
0.00108614
0.00108817
0.0010902
0.00109224
0.00109427
0.00109631
0.00109835
0.00110039
0.00110243
0.00110447
0.00110652
0.00110857
0.00111062
0.00111267
0.00111472
0.00111678
0.00111883
0.00112089
0.00112296
0.00112502
0.00112708
0.00112915
0.00113122
0.00113329
0.00113536
0.00113744
0.00113951
0.00114159
0.00114367
0.00114575
0.00114784
0.00114992
0.00115201
0.0011541
0.00115619
0.00115828
0.00116038
0.00116248
0.00116458
0.00116668
0.00116878
0.00117088
0.00117299
0.0011751
0.00117721
0.00117932
0.00118144
0.00118355
0.00118567
0.00118779
0.00118991
0.00119203
0.00119416
0.00119629
0.00119842
0.00120055
0.00120268
0.00120482
0.00120695
0.00120909
0.00121123
0.00121337
0.00121552
0.00121767
0.00121981
0.00122196
0.00122412
0.00122627
0.00122843
0.00123058
0.00123274
0.0012349
0.00123707
0.00123923
0.0012414
0.00124357
0.00124574
0.00124791
0.00125009
0.00125226
0.00125444
0.00125662
0.0012588
0.00126099
0.00126318
0.00126536
0.00126755
0.00126974
0.00127194
0.00127413
0.00127633
0.00127853
0.00128073
0.00128293
0.00128514
0.00128735
0.00128956
0.00129177
0.00129398
0.00129619
0.00129841
0.00130063
0.00130285
0.00130507
0.00130729
0.00130952
0.00131175
0.00131398
0.00131621
0.00131844
0.00132068
0.00132291
0.00132515
0.00132739
0.00132964
0.00133188
0.00133413
0.00133638
0.00133863
0.00134088
0.00134313
0.00134539
0.00134765
0.00134991
0.00135217
0.00135443
0.0013567
0.00135897
0.00136124
0.00136351
0.00136578
0.00136805
0.00137033
0.00137261
0.00137489
0.00137717
0.00137946
0.00138174
0.00138403
0.00138632
0.00138861
0.00139091
0.0013932
0.0013955
0.0013978
0.0014001
0.00140241
0.00140471
0.00140702
0.00140933
0.00141164
0.00141395
0.00141627
0.00141858
0.0014209
0.00142322
0.00142554
0.00142787
0.0014302
0.00143252
0.00143485
0.00143718
0.00143952
0.00144185
0.00144419
0.00144653
0.00144887
0.00145122
0.00145356
0.00145591
0.00145826
0.00146061
0.00146296
0.00146531
0.00146767
0.00147003
0.00147239
0.00147475
0.00147711
0.00147948
0.00148185
0.00148422
0.00148659
0.00148896
0.00149134
0.00149372
0.00149609
0.00149848
0.00150086
0.00150324
0.00150563
0.00150802
0.00151041
0.0015128
0.0015152
0.00151759
0.00151999
0.00152239
0.00152479
0.0015272
0.0015296
0.00153201
0.00153442
0.00153683
0.00153924
0.00154166
0.00154407
0.00154649
0.00154891
0.00155134
0.00155376
0.00155619
0.00155862
0.00156105
0.00156348
0.00156591
0.00156835
0.00157079
0.00157323
0.00157567
0.00157811
0.00158056
0.001583
0.00158545
0.0015879
0.00159036
0.00159281
0.00159527
0.00159773
0.00160019
0.00160265
0.00160511
0.00160758
0.00161005
0.00161252
0.00161499
0.00161746
0.00161994
0.00162242
0.0016249
0.00162738
0.00162986
0.00163235
0.00163483
0.00163732
0.00163981
0.0016423
0.0016448
0.0016473
0.00164979
0.00165229
0.0016548
0.0016573
0.00165981
0.00166231
0.00166482
0.00166734
0.00166985
0.00167236
0.00167488
0.0016774
0.00167992
0.00168244
0.00168497
0.0016875
0.00169002
0.00169256
0.00169509
0.00169762
0.00170016
0.0017027
0.00170524
0.00170778
0.00171032
0.00171287
0.00171542
0.00171796
0.00172052
0.00172307
0.00172562
0.00172818
0.00173074
0.0017333
0.00173586
0.00173843
0.00174099
0.00174356
0.00174613
0.00174871
0.00175128
0.00175386
0.00175643
0.00175901
0.00176159
0.00176418
0.00176676
0.00176935
0.00177194
0.00177453
0.00177712
0.00177972
0.00178232
0.00178491
0.00178752
0.00179012
0.00179272
0.00179533
0.00179794
0.00180055
0.00180316
0.00180577
0.00180839
0.00181101
0.00181362
0.00181625
0.00181887
0.00182149
0.00182412
0.00182675
0.00182938
0.00183201
0.00183465
0.00183729
0.00183992
0.00184256
0.00184521
0.00184785
0.0018505
0.00185314
0.00185579
0.00185845
0.0018611
0.00186375
0.00186641
0.00186907
0.00187173
0.00187439
0.00187706
0.00187973
0.0018824
0.00188507
0.00188774
0.00189041
0.00189309
0.00189577
0.00189845
0.00190113
0.00190381
0.0019065
0.00190919
0.00191188
0.00191457
0.00191726
0.00191996
0.00192265
0.00192535
0.00192805
0.00193076
0.00193346
0.00193617
0.00193887
0.00194159
0.0019443
0.00194701
0.00194973
0.00195245
0.00195517
0.00195789
0.00196061
0.00196334
0.00196606
0.00196879
0.00197152
0.00197426
0.00197699
0.00197973
0.00198247
0.00198521
0.00198795
0.00199069
0.00199344
0.00199619
0.00199894
0.00200169
0.00200444
0.0020072
0.00200996
0.00201272
0.00201548
0.00201824
0.00202101
0.00202377
0.00202654
0.00202931
0.00203209
0.00203486
0.00203764
0.00204042
0.0020432
0.00204598
0.00204876
0.00205155
0.00205434
0.00205713
0.00205992
0.00206271
0.00206551
0.00206831
0.00207111
0.00207391
0.00207671
0.00207951
0.00208232
0.00208513
0.00208794
0.00209075
0.00209357
0.00209638
0.0020992
0.00210202
0.00210484
0.00210767
0.00211049
0.00211332
0.00211615
0.00211898
0.00212182
0.00212465
0.00212749
0.00213033
0.00213317
0.00213601
0.00213886
0.0021417
0.00214455
0.0021474
0.00215025
0.00215311
0.00215596
0.00215882
0.00216168
0.00216454
0.00216741
0.00217027
0.00217314
0.00217601
0.00217888
0.00218175
0.00218463
0.0021875
0.00219038
0.00219326
0.00219615
0.00219903
0.00220192
0.00220481
0.0022077
0.00221059
0.00221348
0.00221638
0.00221928
0.00222218
0.00222508
0.00222798
0.00223089
0.00223379
0.0022367
0.00223961
0.00224253
0.00224544
0.00224836
0.00225128
0.0022542
0.00225712
0.00226004
0.00226297
0.0022659
0.00226883
0.00227176
0.00227469
0.00227763
0.00228056
0.0022835
0.00228644
0.00228939
0.00229233
0.00229528
0.00229823
0.00230118
0.00230413
0.00230709
0.00231004
0.002313
0.00231596
0.00231892
0.00232189
0.00232485
0.00232782
0.00233079
0.00233376
0.00233674
0.00233971
0.00234269
0.00234567
0.00234865
0.00235163
0.00235462
0.0023576
0.00236059
0.00236358
0.00236657
0.00236957
0.00237256
0.00237556
0.00237856
0.00238156
0.00238457
0.00238757
0.00239058
0.00239359
0.0023966
0.00239961
0.00240263
0.00240565
0.00240866
0.00241169
0.00241471
0.00241773
0.00242076
0.00242379
0.00242682
0.00242985
0.00243288
0.00243592
0.00243896
0.002442
0.00244504
0.00244808
0.00245113
0.00245417
0.00245722
0.00246027
0.00246333
0.00246638
0.00246944
0.0024725
0.00247556
0.00247862
0.00248168
0.00248475
0.00248782
0.00249089
0.00249396
0.00249703
0.00250011
0.00250319
0.00250627
0.00250935
0.00251243
0.00251552
0.0025186
0.00252169
0.00252478
0.00252788
0.00253097
0.00253407
0.00253716
0.00254026
0.00254337
0.00254647
0.00254958
0.00255268
0.00255579
0.00255891
0.00256202
0.00256513
0.00256825
0.00257137
0.00257449
0.00257761
0.00258074
0.00258387
0.00258699
0.00259013
0.00259326
0.00259639
0.00259953
0.00260267
0.00260581
0.00260895
0.00261209
0.00261524
0.00261838
0.00262153
0.00262469
0.00262784
0.00263099
0.00263415
0.00263731
0.00264047
0.00264363
0.0026468
0.00264996
0.00265313
0.0026563
0.00265947
0.00266265
0.00266582
0.002669
0.00267218
0.00267536
0.00267855
0.00268173
0.00268492
0.00268811
0.0026913
0.00269449
0.00269769
0.00270088
0.00270408
0.00270728
0.00271049
0.00271369
0.0027169
0.0027201
0.00272331
0.00272653
0.00272974
0.00273296
0.00273617
0.00273939
0.00274261
0.00274584
0.00274906
0.00275229
0.00275552
0.00275875
0.00276198
0.00276522
0.00276845
0.00277169
0.00277493
0.00277817
0.00278142
0.00278466
0.00278791
0.00279116
0.00279441
0.00279767
0.00280092
0.00280418
0.00280744
0.0028107
0.00281396
0.00281723
0.00282049
0.00282376
0.00282703
0.00283031
0.00283358
0.00283686
0.00284013
0.00284341
0.0028467
0.00284998
0.00285327
0.00285655
0.00285984
0.00286313
0.00286643
0.00286972
0.00287302
0.00287632
0.00287962
0.00288292
0.00288623
0.00288953
0.00289284
0.00289615
0.00289946
0.00290278
0.00290609
0.00290941
0.00291273
0.00291605
0.00291938
0.0029227
0.00292603
0.00292936
0.00293269
0.00293602
0.00293936
0.0029427
0.00294603
0.00294937
0.00295272
0.00295606
0.00295941
0.00296276
0.00296611
0.00296946
0.00297281
0.00297617
0.00297952
0.00298288
0.00298625
0.00298961
0.00299297
0.00299634
0.00299971
0.00300308
0.00300645
0.00300983
0.00301321
0.00301658
0.00301996
0.00302335
0.00302673
0.00303012
0.0030335
0.00303689
0.00304029
0.00304368
0.00304707
0.00305047
0.00305387
0.00305727
0.00306068
0.00306408
0.00306749
0.0030709
0.00307431
0.00307772
0.00308113
0.00308455
0.00308797
0.00309139
0.00309481
0.00309823
0.00310166
0.00310509
0.00310852
0.00311195
0.00311538
0.00311882
0.00312225
0.00312569
0.00312913
0.00313258
0.00313602
0.00313947
0.00314292
0.00314637
0.00314982
0.00315327
0.00315673
0.00316019
0.00316365
0.00316711
0.00317057
0.00317404
0.0031775
0.00318097
0.00318445
0.00318792
0.00319139
0.00319487
0.00319835
0.00320183
0.00320531
0.0032088
0.00321228
0.00321577
0.00321926
0.00322275
0.00322625
0.00322974
0.00323324
0.00323674
0.00324024
0.00324374
0.00324725
0.00325076
0.00325427
0.00325778
0.00326129
0.0032648
0.00326832
0.00327184
0.00327536
0.00327888
0.00328241
0.00328593
0.00328946
0.00329299
0.00329652
0.00330006
0.00330359
0.00330713
0.00331067
0.00331421
0.00331775
0.0033213
0.00332484
0.00332839
0.00333194
0.0033355
0.00333905
0.00334261
0.00334616
0.00334973
0.00335329
0.00335685
0.00336042
0.00336398
0.00336755
0.00337113
0.0033747
0.00337827
0.00338185
0.00338543
0.00338901
0.00339259
0.00339618
0.00339977
0.00340335
0.00340694
0.00341054
0.00341413
0.00341773
0.00342133
0.00342492
0.00342853
0.00343213
0.00343574
0.00343934
0.00344295
0.00344656
0.00345018
0.00345379
0.00345741
0.00346103
0.00346465
0.00346827
0.0034719
0.00347552
0.00347915
0.00348278
0.00348641
0.00349005
0.00349368
0.00349732
0.00350096
0.0035046
0.00350824
0.00351189
0.00351554
0.00351919
0.00352284
0.00352649
0.00353014
0.0035338
0.00353746
0.00354112
0.00354478
0.00354845
0.00355211
0.00355578
0.00355945
0.00356312
0.0035668
0.00357047
0.00357415
0.00357783
0.00358151
0.00358519
0.00358888
0.00359257
0.00359625
0.00359994
0.00360364
0.00360733
0.00361103
0.00361473
0.00361843
0.00362213
0.00362583
0.00362954
0.00363325
0.00363696
0.00364067
0.00364438
0.0036481
0.00365181
0.00365553
0.00365925
0.00366298
0.0036667
0.00367043
0.00367416
0.00367789
0.00368162
0.00368535
0.00368909
0.00369283
0.00369657
0.00370031
0.00370405
0.0037078
0.00371155
0.0037153
0.00371905
0.0037228
0.00372656
0.00373031
0.00373407
0.00373783
0.00374159
0.00374536
0.00374913
0.00375289
0.00375666
0.00376044
0.00376421
0.00376799
0.00377176
0.00377554
0.00377932
0.00378311
0.00378689
0.00379068
0.00379447
0.00379826
0.00380205
0.00380585
0.00380965
0.00381344
0.00381724
0.00382105
0.00382485
0.00382866
0.00383247
0.00383628
0.00384009
0.0038439
0.00384772
0.00385153
0.00385535
0.00385917
0.003863
0.00386682
0.00387065
0.00387448
0.00387831
0.00388214
0.00388598
0.00388981
0.00389365
0.00389749
0.00390133
0.00390518
0.00390902
0.00391287
0.00391672
0.00392057
0.00392443
0.00392828
0.00393214
0.003936
0.00393986
0.00394372
0.00394759
0.00395145
0.00395532
0.00395919
0.00396307
0.00396694
0.00397082
0.00397469
0.00397857
0.00398246
0.00398634
0.00399023
0.00399411
0.003998
0.00400189
0.00400579
0.00400968
0.00401358
0.00401748
0.00402138
0.00402528
0.00402919
0.00403309
0.004037
0.00404091
0.00404482
0.00404874
0.00405265
0.00405657
0.00406049
0.00406441
0.00406834
0.00407226
0.00407619
0.00408012
0.00408405
0.00408798
0.00409192
0.00409585
0.00409979
0.00410373
0.00410768
0.00411162
0.00411557
0.00411951
0.00412346
0.00412742
0.00413137
0.00413533
0.00413928
0.00414324
0.0041472
0.00415117
0.00415513
0.0041591
0.00416307
0.00416704
0.00417101
0.00417499
0.00417896
0.00418294
0.00418692
0.0041909
0.00419489
0.00419887
0.00420286
0.00420685
0.00421084
0.00421484
0.00421883
0.00422283
0.00422683
0.00423083
0.00423483
0.00423884
0.00424284
0.00424685
0.00425086
0.00425488
0.00425889
0.00426291
0.00426693
0.00427095
0.00427497
0.00427899
0.00428302
0.00428704
0.00429107
0.00429511
0.00429914
0.00430317
0.00430721
0.00431125
0.00431529
0.00431933
0.00432338
0.00432742
0.00433147
0.00433552
0.00433958
0.00434363
0.00434769
0.00435174
0.0043558
0.00435987
0.00436393
0.00436799
0.00437206
0.00437613
0.0043802
0.00438428
0.00438835
0.00439243
0.00439651
0.00440059
0.00440467
0.00440875
0.00441284
0.00441693
0.00442102
0.00442511
0.0044292
0.0044333
0.0044374
0.0044415
0.0044456
0.0044497
0.00445381
0.00445791
0.00446202
0.00446613
0.00447025
0.00447436
0.00447848
0.0044826
0.00448672
0.00449084
0.00449496
0.00449909
0.00450322
0.00450735
0.00451148
0.00451561
0.00451975
0.00452388
0.00452802
0.00453217
0.00453631
0.00454045
0.0045446
0.00454875
0.0045529
0.00455705
0.00456121
0.00456536
0.00456952
0.00457368
0.00457784
0.00458201
0.00458617
0.00459034
0.00459451
0.00459868
0.00460285
0.00460703
0.00461121
0.00461539
0.00461957
0.00462375
0.00462793
0.00463212
0.00463631
0.0046405
0.00464469
0.00464889
0.00465308
0.00465728
0.00466148
0.00466568
0.00466989
0.00467409
0.0046783
0.00468251
0.00468672
0.00469093
0.00469515
0.00469936
0.00470358
0.0047078
0.00471203
0.00471625
0.00472048
0.0047247
0.00472894
0.00473317
0.0047374
0.00474164
0.00474587
0.00475011
0.00475436
0.0047586
0.00476284
0.00476709
0.00477134
0.00477559
0.00477984
0.0047841
0.00478836
0.00479261
0.00479687
0.00480114
0.0048054
0.00480967
0.00481394
0.0048182
0.00482248
0.00482675
0.00483103
0.0048353
0.00483958
0.00484386
0.00484815
0.00485243
0.00485672
0.00486101
0.0048653
0.00486959
0.00487389
0.00487818
0.00488248
0.00488678
0.00489108
0.00489539
0.00489969
0.004904
0.00490831
0.00491262
0.00491693
0.00492125
0.00492557
0.00492989
0.00493421
0.00493853
0.00494285
0.00494718
0.00495151
0.00495584
0.00496017
0.00496451
0.00496884
0.00497318
0.00497752
0.00498186
0.00498621
0.00499055
0.0049949
0.00499925
0.0050036
0.00500795
0.00501231
0.00501667
0.00502102
0.00502538
0.00502975
0.00503411
0.00503848
0.00504285
0.00504722
0.00505159
0.00505596
0.00506034
0.00506472
0.0050691
0.00507348
0.00507786
0.00508225
0.00508663
0.00509102
0.00509541
0.00509981
0.0051042
0.0051086
0.005113
0.0051174
0.0051218
0.0051262
0.00513061
0.00513502
0.00513943
0.00514384
0.00514825
0.00515267
0.00515709
0.00516151
0.00516593
0.00517035
0.00517478
0.0051792
0.00518363
0.00518806
0.00519249
0.00519693
0.00520137
0.0052058
0.00521024
0.00521469
0.00521913
0.00522358
0.00522802
0.00523247
0.00523693
0.00524138
0.00524583
0.00525029
0.00525475
0.00525921
0.00526367
0.00526814
0.00527261
0.00527707
0.00528154
0.00528602
0.00529049
0.00529497
0.00529945
0.00530393
0.00530841
0.00531289
0.00531738
0.00532186
0.00532635
0.00533085
0.00533534
0.00533983
0.00534433
0.00534883
0.00535333
0.00535783
0.00536234
0.00536684
0.00537135
0.00537586
0.00538037
0.00538489
0.0053894
0.00539392
0.00539844
0.00540296
0.00540749
0.00541201
0.00541654
0.00542107
0.0054256
0.00543013
0.00543467
0.0054392
0.00544374
0.00544828
0.00545283
0.00545737
0.00546192
0.00546646
0.00547101
0.00547557
0.00548012
0.00548468
0.00548923
0.00549379
0.00549835
0.00550292
0.00550748
0.00551205
0.00551662
0.00552119
0.00552576
0.00553034
0.00553491
0.00553949
0.00554407
0.00554865
0.00555324
0.00555782
0.00556241
0.005567
0.00557159
0.00557619
0.00558078
0.00558538
0.00558998
0.00559458
0.00559918
0.00560379
0.00560839
0.005613
0.00561761
0.00562223
0.00562684
0.00563146
0.00563607
0.00564069
0.00564532
0.00564994
0.00565457
0.00565919
0.00566382
0.00566845
0.00567309
0.00567772
0.00568236
0.005687
0.00569164
0.00569628
0.00570093
0.00570557
0.00571022
0.00571487
0.00571952
0.00572418
0.00572883
0.00573349
0.00573815
0.00574281
0.00574748
0.00575214
0.00575681
0.00576148
0.00576615
0.00577082
0.0057755
0.00578018
0.00578485
0.00578953
0.00579422
0.0057989
0.00580359
0.00580828
0.00581297
0.00581766
0.00582235
0.00582705
0.00583175
0.00583644
0.00584115
0.00584585
0.00585055
0.00585526
0.00585997
0.00586468
0.00586939
0.00587411
0.00587883
0.00588354
0.00588826
0.00589299
0.00589771
0.00590244
0.00590716
0.00591189
0.00591663
0.00592136
0.0059261
0.00593083
0.00593557
0.00594031
0.00594506
0.0059498
0.00595455
0.0059593
0.00596405
0.0059688
0.00597355
0.00597831
0.00598307
0.00598783
0.00599259
0.00599735
0.00600212
0.00600689
0.00601166
0.00601643
0.0060212
0.00602598
0.00603075
0.00603553
0.00604031
0.0060451
0.00604988
0.00605467
0.00605946
0.00606425
0.00606904
0.00607383
0.00607863
0.00608343
0.00608823
0.00609303
0.00609783
0.00610264
0.00610745
0.00611225
0.00611707
0.00612188
0.00612669
0.00613151
0.00613633
0.00614115
0.00614597
0.0061508
0.00615562
0.00616045
0.00616528
0.00617011
0.00617495
0.00617978
0.00618462
0.00618946
0.0061943
0.00619915
0.00620399
0.00620884
0.00621369
0.00621854
0.00622339
0.00622825
0.0062331
0.00623796
0.00624282
0.00624768
0.00625255
0.00625741
0.00626228
0.00626715
0.00627202
0.0062769