/*--------------------------------*- C++ -*----------------------------------*\
| =========                 |                                                 |
| \\      /  F ield         | OpenFOAM: The Open Source CFD Toolbox           |
|  \\    /   O peration     | Version:  2206                                  |
|   \\  /    A nd           | Website:  www.openfoam.com                      |
|    \\/     M anipulation  |                                                 |
\*---------------------------------------------------------------------------*/
FoamFile
{
    version     2.0;
    format      ascii;
    arch        "LSB;label=32;scalar=64";
    class       surfaceScalarField;
    location    "40";
    object      phi;
}
// * * * * * * * * * * * * * * * * * * * * * * * * * * * * * * * * * * * * * //

dimensions      [0 3 -1 0 0 0 0];

oriented        oriented;

internalField   nonuniform List<scalar> 
94990
(
5.03454e-24
1.04606e-23
-3.58682e-24
-4.74507e-24
3.99922e-24
1.03949e-23
-5.49179e-25
-7.49042e-24
4.40572e-24
4.73633e-24
-5.67093e-25
-2.8448e-24
-1.22725e-24
6.06001e-24
-7.27401e-24
7.66686e-25
-8.13907e-24
4.69822e-24
-1.34008e-23
1.35878e-24
-1.66157e-23
6.1236e-24
-2.31945e-23
3.53142e-24
-2.62777e-23
5.37423e-24
-3.34916e-23
4.76255e-24
-3.81015e-23
6.44977e-24
-4.53695e-23
5.25549e-24
-5.12084e-23
7.34164e-24
-5.89692e-23
6.07933e-24
-6.57331e-23
8.01342e-24
-7.41435e-23
6.98278e-24
-8.17644e-23
8.67769e-24
-9.08512e-23
7.85745e-24
-9.93141e-23
9.37031e-24
-1.09091e-22
8.70537e-24
-1.18385e-22
1.00831e-23
-1.28865e-22
9.53637e-24
-1.3898e-22
1.08091e-23
-1.50176e-22
1.03569e-23
-1.61103e-22
1.1544e-23
-1.73026e-22
1.11704e-23
-1.84758e-22
1.22857e-23
-1.97416e-22
1.19789e-23
-2.0995e-22
1.30326e-23
-2.2335e-22
1.27835e-23
-2.36681e-22
1.3784e-23
-2.50828e-22
1.3585e-23
-2.64953e-22
1.4539e-23
-2.79854e-22
1.4384e-23
-2.94771e-22
1.52971e-23
-3.10427e-22
1.51809e-23
-3.26135e-22
1.60578e-23
-3.42551e-22
1.59761e-23
-3.59047e-22
1.68207e-23
-3.76225e-22
1.67698e-23
-3.93509e-22
1.75855e-23
-4.11451e-22
1.75623e-23
-4.29522e-22
1.8352e-23
-4.4823e-22
1.83537e-23
-4.67087e-22
1.91199e-23
-4.86564e-22
1.91443e-23
-5.06206e-22
1.9889e-23
-5.26452e-22
1.99341e-23
-5.46879e-22
2.06591e-23
-5.67895e-22
2.07232e-23
-5.89106e-22
2.14302e-23
-6.10894e-22
2.15117e-23
-6.3289e-22
2.22021e-23
-6.5545e-22
2.22997e-23
-6.78229e-22
2.29748e-23
-7.01563e-22
2.30872e-23
-7.25126e-22
2.37481e-23
-7.49233e-22
2.38743e-23
-7.73579e-22
2.45219e-23
-7.98461e-22
2.46609e-23
-8.2359e-22
2.52963e-23
-8.49247e-22
2.54472e-23
-8.75159e-22
2.60712e-23
-9.01592e-22
2.62332e-23
-9.28287e-22
2.68465e-23
-9.55495e-22
2.70188e-23
-9.82973e-22
2.76222e-23
-1.01096e-21
2.78042e-23
-1.03922e-21
2.83982e-23
-1.06798e-21
2.85893e-23
-1.09702e-21
2.91745e-23
-1.12656e-21
2.93741e-23
-1.15638e-21
2.99511e-23
-1.1867e-21
3.01588e-23
-1.21731e-21
3.0728e-23
-1.2484e-21
3.09432e-23
-1.27979e-21
3.15051e-23
-1.31166e-21
3.17274e-23
-1.34383e-21
3.22825e-23
-1.37648e-21
3.25114e-23
-1.40943e-21
3.306e-23
-1.44286e-21
3.32952e-23
-1.47659e-21
3.38377e-23
-1.5108e-21
3.40789e-23
-1.54531e-21
3.46156e-23
-1.5803e-21
3.48625e-23
-1.61559e-21
3.53937e-23
-1.65136e-21
3.56459e-23
-1.68744e-21
3.61719e-23
-1.72398e-21
3.64292e-23
-1.76084e-21
3.69502e-23
-1.79816e-21
3.72124e-23
-1.8358e-21
3.77286e-23
-1.8739e-21
3.79954e-23
-1.91232e-21
3.85072e-23
-1.9512e-21
3.87784e-23
-1.99041e-21
3.92858e-23
-2.03006e-21
3.95613e-23
-2.07005e-21
4.00646e-23
-2.11049e-21
4.0344e-23
-2.15125e-21
4.08434e-23
-2.19247e-21
4.11267e-23
-2.23402e-21
4.16223e-23
-2.27601e-21
4.19094e-23
-2.31834e-21
4.24013e-23
-2.36112e-21
4.26919e-23
-2.40423e-21
4.31803e-23
-2.44778e-21
4.34744e-23
-2.49168e-21
4.39594e-23
-2.53601e-21
4.42569e-23
-2.58068e-21
4.47386e-23
-2.6258e-21
4.50392e-23
-2.67125e-21
4.55178e-23
-2.71715e-21
4.58215e-23
-2.76338e-21
4.62971e-23
-2.81006e-21
4.66038e-23
-2.85707e-21
4.70764e-23
-2.90453e-21
4.7386e-23
-2.95232e-21
4.78558e-23
-3.00056e-21
4.81682e-23
-3.04914e-21
4.86352e-23
-3.09815e-21
4.89503e-23
-3.14751e-21
4.94147e-23
-3.1973e-21
4.97324e-23
-3.24744e-21
5.01942e-23
-3.29801e-21
5.05144e-23
-3.34894e-21
5.09737e-23
-3.40029e-21
5.12964e-23
-3.45199e-21
5.17533e-23
-3.50413e-21
5.20784e-23
-3.55661e-21
5.25329e-23
-3.60952e-21
5.28603e-23
-3.66279e-21
5.33125e-23
-3.71648e-21
5.36422e-23
-3.77053e-21
5.40921e-23
-3.825e-21
5.44241e-23
-3.87983e-21
5.48718e-23
-3.93508e-21
5.52059e-23
-3.99069e-21
5.56515e-23
-4.04672e-21
5.59877e-23
-4.10311e-21
5.64313e-23
-4.15992e-21
5.67695e-23
-4.21709e-21
5.7211e-23
-4.27468e-21
5.75513e-23
-4.33264e-21
5.79908e-23
-4.39101e-21
5.8333e-23
-4.44974e-21
5.87706e-23
-4.50889e-21
5.91147e-23
-4.56841e-21
5.95504e-23
-4.62834e-21
5.98964e-23
-4.68864e-21
6.03302e-23
-4.74935e-21
6.0678e-23
-4.81042e-21
6.11101e-23
-4.87192e-21
6.14597e-23
-4.93377e-21
6.189e-23
-4.99605e-21
6.22413e-23
-5.05868e-21
6.26699e-23
-5.12174e-21
6.30229e-23
-5.18516e-21
6.34498e-23
-5.24899e-21
6.38045e-23
-5.31319e-21
6.42297e-23
-5.3778e-21
6.45861e-23
-5.44278e-21
6.50096e-23
-5.50818e-21
6.53676e-23
-5.57394e-21
6.57896e-23
-5.64011e-21
6.61491e-23
-5.70665e-21
6.65695e-23
-5.77361e-21
6.69307e-23
-5.84093e-21
6.73495e-23
-5.90867e-21
6.77122e-23
-5.97677e-21
6.81295e-23
-6.04529e-21
6.84937e-23
-6.11417e-21
6.89095e-23
-6.18347e-21
6.92751e-23
-6.25313e-21
6.96895e-23
-6.32321e-21
7.00566e-23
-6.39365e-21
7.04695e-23
-6.46451e-21
7.08381e-23
-6.53574e-21
7.12495e-23
-6.60737e-21
7.16195e-23
-6.67938e-21
7.20295e-23
-6.7518e-21
7.24009e-23
-6.82459e-21
7.28096e-23
-6.89779e-21
7.31823e-23
-6.97135e-21
7.35896e-23
-7.04533e-21
7.39638e-23
-7.11968e-21
7.43697e-23
-7.19444e-21
7.47452e-23
-7.26957e-21
7.51497e-23
-7.34511e-21
7.55265e-23
-7.42102e-21
7.59298e-23
-7.49734e-21
7.63079e-23
-7.57403e-21
7.67099e-23
-7.65113e-21
7.70893e-23
-7.72861e-21
7.749e-23
-7.80649e-21
7.78707e-23
-7.88474e-21
7.82701e-23
-7.9634e-21
7.8652e-23
-8.04244e-21
7.90502e-23
-8.12188e-21
7.94334e-23
-8.20169e-21
7.98303e-23
-8.28191e-21
8.02147e-23
-8.36251e-21
8.06104e-23
-8.44351e-21
8.09961e-23
-8.52489e-21
8.13905e-23
-8.60667e-21
8.17774e-23
-8.68883e-21
8.21706e-23
-8.77139e-21
8.25587e-23
-8.85433e-21
8.29507e-23
-8.93767e-21
8.334e-23
-9.02139e-21
8.37308e-23
-9.10552e-21
8.41213e-23
-9.19002e-21
8.4511e-23
-9.27492e-21
8.49026e-23
-9.3602e-21
8.52911e-23
-9.44589e-21
8.56839e-23
-9.53195e-21
8.60712e-23
-9.61841e-21
8.64652e-23
-9.70525e-21
8.68514e-23
-9.7925e-21
8.72465e-23
-9.88012e-21
8.76315e-23
-9.96815e-21
8.80278e-23
-1.00566e-20
8.84117e-23
-1.01454e-20
8.88091e-23
-1.02345e-20
8.91918e-23
-1.03241e-20
8.95904e-23
-1.04141e-20
8.9972e-23
-1.05045e-20
9.03717e-23
-1.05952e-20
9.07521e-23
-1.06864e-20
9.11529e-23
-1.07779e-20
9.15323e-23
-1.08698e-20
9.19342e-23
-1.09621e-20
9.23124e-23
-1.10548e-20
9.27155e-23
-1.11479e-20
9.30926e-23
-1.12414e-20
9.34967e-23
-1.13353e-20
9.38727e-23
-1.14295e-20
9.4278e-23
-1.15242e-20
9.46529e-23
-1.16192e-20
9.50592e-23
-1.17147e-20
9.54331e-23
-1.18105e-20
9.58405e-23
-1.19067e-20
9.62132e-23
-1.20033e-20
9.66217e-23
-1.21003e-20
9.69934e-23
-1.21977e-20
9.7403e-23
-1.22955e-20
9.77736e-23
-1.23937e-20
9.81842e-23
-1.24922e-20
9.85537e-23
-1.25912e-20
9.89655e-23
-1.26905e-20
9.93339e-23
-1.27902e-20
9.97467e-23
-1.28903e-20
1.00114e-22
-1.29909e-20
1.00528e-22
-1.30918e-20
1.00894e-22
-1.31931e-20
1.01309e-22
-1.32947e-20
1.01674e-22
-1.33968e-20
1.0209e-22
-1.34993e-20
1.02455e-22
-1.36021e-20
1.02872e-22
-1.37054e-20
1.03235e-22
-1.3809e-20
1.03653e-22
-1.3913e-20
1.04015e-22
-1.40174e-20
1.04434e-22
-1.41222e-20
1.04795e-22
-1.42274e-20
1.05215e-22
-1.4333e-20
1.05575e-22
-1.4439e-20
1.05997e-22
-1.45453e-20
1.06356e-22
-1.46521e-20
1.06778e-22
-1.47592e-20
1.07136e-22
-1.48668e-20
1.07559e-22
-1.49747e-20
1.07916e-22
-1.5083e-20
1.0834e-22
-1.51917e-20
1.08696e-22
-1.53008e-20
1.09121e-22
-1.54103e-20
1.09476e-22
-1.55202e-20
1.09903e-22
-1.56304e-20
1.10256e-22
-1.57411e-20
1.10684e-22
-1.58521e-20
1.11037e-22
-1.59636e-20
1.11465e-22
-1.60754e-20
1.11817e-22
-1.61876e-20
1.12246e-22
-1.63002e-20
1.12597e-22
-1.64132e-20
1.13028e-22
-1.65266e-20
1.13377e-22
-1.66404e-20
1.13809e-22
-1.67546e-20
1.14157e-22
-1.68691e-20
1.1459e-22
-1.69841e-20
1.14938e-22
-1.70994e-20
1.15371e-22
-1.72152e-20
1.15718e-22
-1.73313e-20
1.16152e-22
-1.74478e-20
1.16498e-22
-1.75647e-20
1.16934e-22
-1.7682e-20
1.17278e-22
-1.77997e-20
1.17715e-22
-1.79178e-20
1.18058e-22
-1.80362e-20
1.18496e-22
-1.81551e-20
1.18838e-22
-1.82743e-20
1.19277e-22
-1.8394e-20
1.19619e-22
-1.8514e-20
1.20058e-22
-1.86344e-20
1.20399e-22
-1.87552e-20
1.2084e-22
-1.88764e-20
1.21179e-22
-1.8998e-20
1.21621e-22
-1.912e-20
1.21959e-22
-1.92423e-20
1.22402e-22
-1.93651e-20
1.22739e-22
-1.94882e-20
1.23183e-22
-1.96118e-20
1.2352e-22
-1.97357e-20
1.23964e-22
-1.986e-20
1.243e-22
-1.99847e-20
1.24746e-22
-2.01098e-20
1.2508e-22
-2.02353e-20
1.25527e-22
-2.03612e-20
1.2586e-22
-2.04875e-20
1.26308e-22
-2.06141e-20
1.2664e-22
-2.07412e-20
1.27089e-22
-2.08686e-20
1.2742e-22
-2.09964e-20
1.27871e-22
-2.11247e-20
1.28201e-22
-2.12533e-20
1.28652e-22
-2.13823e-20
1.28981e-22
-2.15117e-20
1.29433e-22
-2.16415e-20
1.29761e-22
-2.17716e-20
1.30214e-22
-2.19022e-20
1.30541e-22
-2.20331e-20
1.30995e-22
-2.21645e-20
1.31321e-22
-2.22962e-20
1.31777e-22
-2.24283e-20
1.32102e-22
-2.25609e-20
1.32558e-22
-2.26938e-20
1.32882e-22
-2.28271e-20
1.33339e-22
-2.29607e-20
1.33662e-22
-2.30948e-20
1.3412e-22
-2.32293e-20
1.34442e-22
-2.33642e-20
1.34901e-22
-2.34994e-20
1.35222e-22
-2.3635e-20
1.35683e-22
-2.37711e-20
1.36002e-22
-2.39075e-20
1.36464e-22
-2.40443e-20
1.36783e-22
-2.41815e-20
1.37245e-22
-2.43191e-20
1.37563e-22
-2.44571e-20
1.38026e-22
-2.45954e-20
1.38343e-22
-2.47342e-20
1.38808e-22
-2.48733e-20
1.39123e-22
-2.50129e-20
1.39589e-22
-2.51528e-20
1.39903e-22
-2.52931e-20
1.4037e-22
-2.54338e-20
1.40683e-22
-2.55749e-20
1.41151e-22
-2.57164e-20
1.41464e-22
-2.58583e-20
1.41932e-22
-2.60006e-20
1.42244e-22
-2.61433e-20
1.42714e-22
-2.62863e-20
1.43024e-22
-2.64298e-20
1.43495e-22
-2.65736e-20
1.43804e-22
-2.67178e-20
1.44276e-22
-2.68624e-20
1.44584e-22
-2.70074e-20
1.45057e-22
-2.71528e-20
1.45364e-22
-2.72986e-20
1.45838e-22
-2.74448e-20
1.46144e-22
-2.75914e-20
1.4662e-22
-2.77383e-20
1.46925e-22
-2.78857e-20
1.47401e-22
-2.80334e-20
1.47705e-22
-2.81815e-20
1.48182e-22
-2.833e-20
1.48485e-22
-2.84789e-20
1.48963e-22
-2.86282e-20
1.49265e-22
-2.87779e-20
1.49745e-22
-2.8928e-20
1.50045e-22
-2.90785e-20
1.50526e-22
-2.92293e-20
1.50825e-22
-2.93806e-20
1.51307e-22
-2.95322e-20
1.51606e-22
-2.96843e-20
1.52088e-22
-2.98367e-20
1.52386e-22
-2.99895e-20
1.5287e-22
-3.01427e-20
1.53166e-22
-3.02963e-20
1.53651e-22
-3.04503e-20
1.53946e-22
-3.06046e-20
1.54432e-22
-3.07594e-20
1.54726e-22
-3.09146e-20
1.55213e-22
-3.10701e-20
1.55506e-22
-3.1226e-20
1.55994e-22
-3.13824e-20
1.56286e-22
-3.15391e-20
1.56776e-22
-3.16962e-20
1.57067e-22
-3.18537e-20
1.57557e-22
-3.20116e-20
1.57847e-22
-3.21698e-20
1.58338e-22
-3.23285e-20
1.58627e-22
-3.24876e-20
1.59119e-22
-3.2647e-20
1.59407e-22
-3.28068e-20
1.59901e-22
-3.29671e-20
1.60187e-22
-3.31277e-20
1.60682e-22
-3.32887e-20
1.60967e-22
-3.34501e-20
1.61463e-22
-3.36119e-20
1.61747e-22
-3.37741e-20
1.62244e-22
-3.39366e-20
1.62527e-22
-3.40996e-20
1.63026e-22
-3.42629e-20
1.63308e-22
-3.44267e-20
1.63807e-22
-3.45908e-20
1.64088e-22
-3.47553e-20
1.64588e-22
-3.49202e-20
1.64868e-22
-3.50855e-20
1.65369e-22
-3.52512e-20
1.65648e-22
-3.54173e-20
1.66151e-22
-3.55838e-20
1.66428e-22
-3.57506e-20
1.66932e-22
-3.59179e-20
1.67208e-22
-3.60855e-20
1.67713e-22
-3.62536e-20
1.67988e-22
-3.6422e-20
1.68494e-22
-3.65908e-20
1.68768e-22
-3.676e-20
1.69276e-22
-3.69296e-20
1.69549e-22
-3.70996e-20
1.70057e-22
-3.727e-20
1.70329e-22
-3.74407e-20
1.70838e-22
-3.76119e-20
1.71109e-22
-3.77834e-20
1.7162e-22
-3.79554e-20
1.71889e-22
-3.81277e-20
1.72401e-22
-3.83004e-20
1.72669e-22
-3.84735e-20
1.73182e-22
-3.8647e-20
1.73449e-22
-3.88209e-20
1.73963e-22
-3.89952e-20
1.74229e-22
-3.91699e-20
1.74745e-22
-3.93449e-20
1.75009e-22
-3.95204e-20
1.75526e-22
-3.96962e-20
1.75789e-22
-3.98724e-20
1.76307e-22
-4.00491e-20
1.7657e-22
-4.02261e-20
1.77088e-22
-4.04035e-20
1.7735e-22
-4.05813e-20
1.7787e-22
-4.07594e-20
1.7813e-22
-4.0938e-20
1.78651e-22
-4.1117e-20
1.7891e-22
-4.12963e-20
1.79432e-22
-4.14761e-20
1.7969e-22
-4.16562e-20
1.80214e-22
-4.18367e-20
1.8047e-22
-4.20176e-20
1.80995e-22
-4.21989e-20
1.8125e-22
-4.23806e-20
1.81776e-22
-4.25627e-20
1.8203e-22
-4.27452e-20
1.82557e-22
-4.29281e-20
1.8281e-22
-4.31113e-20
1.83339e-22
-4.3295e-20
1.8359e-22
-4.3479e-20
1.8412e-22
-4.36634e-20
1.8437e-22
-4.38483e-20
1.84901e-22
-4.40335e-20
1.85151e-22
-4.42191e-20
1.85683e-22
-4.4405e-20
1.85931e-22
-4.45914e-20
1.86464e-22
-4.47782e-20
1.86711e-22
-4.49653e-20
1.87245e-22
-4.51529e-20
1.87491e-22
-4.53408e-20
1.88026e-22
-4.55292e-20
1.88271e-22
-4.57179e-20
1.88808e-22
-4.5907e-20
1.89051e-22
-4.60965e-20
1.89589e-22
-4.62864e-20
1.89831e-22
-4.64767e-20
1.9037e-22
-4.66673e-20
1.90611e-22
-4.68584e-20
1.91152e-22
-4.70499e-20
1.91391e-22
-4.72417e-20
1.91933e-22
-4.74339e-20
1.92171e-22
-4.76266e-20
1.92714e-22
-4.78196e-20
1.92951e-22
-4.8013e-20
1.93496e-22
-4.82068e-20
1.93731e-22
-4.8401e-20
1.94277e-22
-4.85955e-20
1.94511e-22
-4.87905e-20
1.95058e-22
-4.89858e-20
1.95291e-22
-4.91816e-20
1.9584e-22
-4.93777e-20
1.96072e-22
-4.95743e-20
1.96621e-22
-4.97712e-20
1.96852e-22
-4.99685e-20
1.97402e-22
-5.01662e-20
1.97632e-22
-5.03643e-20
1.98183e-22
-5.05627e-20
1.98412e-22
-5.07616e-20
1.98965e-22
-5.09609e-20
1.99192e-22
-5.11605e-20
1.99746e-22
-5.13606e-20
1.99972e-22
-5.1561e-20
2.00527e-22
-5.17618e-20
2.00752e-22
-5.1963e-20
2.01309e-22
-5.21646e-20
2.01532e-22
-5.23666e-20
2.0209e-22
-5.2569e-20
2.02312e-22
-5.27718e-20
2.02871e-22
-5.29749e-20
2.03092e-22
-5.31785e-20
2.03653e-22
-5.33824e-20
2.03872e-22
-5.35867e-20
2.04434e-22
-5.37915e-20
2.04652e-22
-5.39966e-20
2.05215e-22
-5.42021e-20
2.05432e-22
-5.4408e-20
2.05997e-22
-5.46143e-20
2.06212e-22
-5.48209e-20
2.06778e-22
-5.5028e-20
2.06992e-22
-5.52355e-20
2.07559e-22
-5.54433e-20
2.07772e-22
-5.56515e-20
2.08341e-22
-5.58602e-20
2.08552e-22
-5.60692e-20
2.09122e-22
-5.62786e-20
2.09332e-22
-5.64884e-20
2.09904e-22
-5.66986e-20
2.10112e-22
-5.69092e-20
2.10685e-22
-5.71201e-20
2.10892e-22
-5.73315e-20
2.11466e-22
-5.75432e-20
2.11672e-22
-5.77554e-20
2.12248e-22
-5.79679e-20
2.12452e-22
-5.81808e-20
2.13029e-22
-5.83941e-20
2.13232e-22
-5.86078e-20
2.1381e-22
-5.88219e-20
2.14012e-22
-5.90364e-20
2.14592e-22
-5.92513e-20
2.14792e-22
-5.94665e-20
2.15373e-22
-5.96822e-20
2.15572e-22
-5.98982e-20
2.16154e-22
-6.01147e-20
2.16352e-22
-6.03315e-20
2.16936e-22
-6.05487e-20
2.17132e-22
-6.07663e-20
2.17717e-22
-6.09843e-20
2.17912e-22
-6.12027e-20
2.18498e-22
-6.14214e-20
2.18692e-22
-6.16406e-20
2.1928e-22
-6.18602e-20
2.19472e-22
-6.20801e-20
2.20061e-22
-6.23004e-20
2.20252e-22
-6.25212e-20
2.20843e-22
-6.27423e-20
2.21032e-22
-6.29638e-20
2.21624e-22
-6.31857e-20
2.21812e-22
-6.3408e-20
2.22405e-22
-6.36307e-20
2.22592e-22
-6.38537e-20
2.23187e-22
-6.40772e-20
2.23372e-22
-6.4301e-20
2.23968e-22
-6.45253e-20
2.24152e-22
-6.47499e-20
2.2475e-22
-6.49749e-20
2.24932e-22
-6.52003e-20
2.25531e-22
-6.54261e-20
2.25712e-22
-6.56523e-20
2.26312e-22
-6.58789e-20
2.26492e-22
-6.61059e-20
2.27094e-22
-6.63332e-20
2.27272e-22
-6.6561e-20
2.27875e-22
-6.67891e-20
2.28052e-22
-6.70177e-20
2.28656e-22
-6.72466e-20
2.28832e-22
-6.74759e-20
2.29438e-22
-6.77056e-20
2.29612e-22
-6.79357e-20
2.30219e-22
-6.81662e-20
2.30392e-22
-6.8397e-20
2.31001e-22
-6.86283e-20
2.31172e-22
-6.886e-20
2.31782e-22
-6.9092e-20
2.31952e-22
-6.93244e-20
2.32563e-22
-6.95573e-20
2.32732e-22
-6.97905e-20
2.33345e-22
-7.00241e-20
2.33512e-22
-7.02581e-20
2.34126e-22
-7.04925e-20
2.34292e-22
-7.07273e-20
2.34908e-22
-7.09624e-20
2.35072e-22
-7.1198e-20
2.35689e-22
-7.14339e-20
2.35852e-22
-7.16703e-20
2.36471e-22
-7.1907e-20
2.36632e-22
-7.21441e-20
2.37252e-22
-7.23816e-20
2.37412e-22
-7.26195e-20
2.38033e-22
-7.28578e-20
2.38192e-22
-7.30965e-20
2.38815e-22
-7.33356e-20
2.38972e-22
-7.3575e-20
2.39596e-22
-7.38149e-20
2.39752e-22
-7.40551e-20
2.40378e-22
-7.42957e-20
2.40532e-22
-7.45368e-20
2.41159e-22
-7.47782e-20
2.41312e-22
-7.502e-20
2.4194e-22
-7.52622e-20
2.42092e-22
-7.55048e-20
2.42722e-22
-7.57477e-20
2.42872e-22
-7.59911e-20
2.43503e-22
-7.62349e-20
2.43651e-22
-7.6479e-20
2.44285e-22
-7.67235e-20
2.44431e-22
-7.69685e-20
2.45066e-22
-7.72138e-20
2.45211e-22
-7.74595e-20
2.45848e-22
-7.77056e-20
2.45991e-22
-7.79521e-20
2.46629e-22
-7.81989e-20
2.46771e-22
-7.84462e-20
2.47411e-22
-7.86939e-20
2.47551e-22
-7.89419e-20
2.48192e-22
-7.91904e-20
2.48331e-22
-7.94392e-20
2.48973e-22
-7.96884e-20
2.49111e-22
-7.9938e-20
2.49755e-22
-8.0188e-20
2.49891e-22
-8.04384e-20
2.50536e-22
-8.06892e-20
2.50671e-22
-8.09404e-20
2.51318e-22
-8.11919e-20
2.51451e-22
-8.14439e-20
2.52099e-22
-8.16962e-20
2.52231e-22
-8.19489e-20
2.52881e-22
-8.22021e-20
2.53011e-22
-8.24556e-20
2.53662e-22
-8.27095e-20
2.5379e-22
-8.29638e-20
2.54444e-22
-8.32184e-20
2.5457e-22
-8.34735e-20
2.55225e-22
-8.3729e-20
2.5535e-22
-8.39848e-20
2.56007e-22
-8.42411e-20
2.5613e-22
-8.44977e-20
2.56788e-22
-8.47547e-20
2.5691e-22
-8.50122e-20
2.5757e-22
-8.527e-20
2.5769e-22
-8.55282e-20
2.58351e-22
-8.57867e-20
2.5847e-22
-8.60457e-20
2.59132e-22
-8.63051e-20
2.5925e-22
-8.65649e-20
2.59914e-22
-8.6825e-20
2.6003e-22
-8.70855e-20
2.60695e-22
-8.73465e-20
2.6081e-22
-8.76078e-20
2.61477e-22
-8.78695e-20
2.6159e-22
-8.81316e-20
2.62258e-22
-8.83941e-20
2.62369e-22
-8.8657e-20
2.6304e-22
-8.89202e-20
2.63149e-22
-8.91839e-20
2.63821e-22
-8.94479e-20
2.63929e-22
-8.97124e-20
2.64603e-22
-8.99772e-20
2.64709e-22
-9.02424e-20
2.65384e-22
-9.0508e-20
2.65489e-22
-9.07741e-20
2.66166e-22
-9.10404e-20
2.66269e-22
-9.13072e-20
2.66947e-22
-9.15744e-20
2.67049e-22
-9.1842e-20
2.67729e-22
-9.21099e-20
2.67829e-22
-9.23783e-20
2.6851e-22
-9.2647e-20
2.68608e-22
-9.29161e-20
2.69292e-22
-9.31856e-20
2.69388e-22
-9.34555e-20
2.70073e-22
-9.37258e-20
2.70168e-22
-9.39965e-20
2.70855e-22
-9.42676e-20
2.70948e-22
-9.45391e-20
2.71636e-22
-9.48109e-20
2.71728e-22
-9.50832e-20
2.72418e-22
-9.53558e-20
2.72508e-22
-9.56288e-20
2.73199e-22
-9.59023e-20
2.73288e-22
-9.61761e-20
2.73981e-22
-9.64503e-20
2.74068e-22
-9.67249e-20
2.74762e-22
-9.69998e-20
2.74847e-22
-9.72752e-20
2.75544e-22
-9.7551e-20
2.75627e-22
-9.78271e-20
2.76325e-22
-9.81037e-20
2.76407e-22
-9.83806e-20
2.77107e-22
-9.86579e-20
2.77187e-22
-9.89356e-20
2.77888e-22
-9.92137e-20
2.77967e-22
-9.94922e-20
2.7867e-22
-9.97711e-20
2.78747e-22
-1.0005e-19
2.79452e-22
-1.0033e-19
2.79527e-22
-1.0061e-19
2.80233e-22
-1.00891e-19
2.80306e-22
-1.01171e-19
2.81015e-22
-1.01453e-19
2.81086e-22
-1.01734e-19
2.81796e-22
-1.02016e-19
2.81866e-22
-1.02299e-19
2.82578e-22
-1.02581e-19
2.82646e-22
-1.02865e-19
2.83359e-22
-1.03148e-19
2.83426e-22
-1.03432e-19
2.84141e-22
-1.03716e-19
2.84206e-22
-1.04001e-19
2.84922e-22
-1.04286e-19
2.84985e-22
-1.04572e-19
2.85704e-22
-1.04858e-19
2.85765e-22
-1.05144e-19
2.86485e-22
-1.05431e-19
2.86545e-22
-1.05718e-19
2.87267e-22
-1.06005e-19
2.87325e-22
-1.06293e-19
2.88048e-22
-1.06581e-19
2.88105e-22
-1.0687e-19
2.8883e-22
-1.07159e-19
2.88884e-22
-1.07448e-19
2.89612e-22
-1.07738e-19
2.89664e-22
-1.08028e-19
2.90393e-22
-1.08319e-19
2.90444e-22
-1.0861e-19
2.91175e-22
-1.08901e-19
2.91224e-22
-1.09193e-19
2.91956e-22
-1.09485e-19
2.92004e-22
-1.09778e-19
2.92738e-22
-1.10071e-19
2.92784e-22
-1.10364e-19
2.93519e-22
-1.10658e-19
2.93563e-22
-1.10952e-19
2.94301e-22
-1.11246e-19
2.94343e-22
-1.11541e-19
2.95083e-22
-1.11837e-19
2.95123e-22
-1.12132e-19
2.95864e-22
-1.12428e-19
2.95903e-22
-1.12725e-19
2.96646e-22
-1.13022e-19
2.96683e-22
-1.13319e-19
2.97427e-22
-1.13616e-19
2.97462e-22
-1.13915e-19
2.98209e-22
-1.14213e-19
2.98242e-22
-1.14512e-19
2.9899e-22
-1.14811e-19
2.99022e-22
-1.1511e-19
2.99772e-22
-1.1541e-19
2.99802e-22
-1.15711e-19
3.00554e-22
-1.16011e-19
3.00582e-22
-1.16313e-19
3.01335e-22
-1.16614e-19
3.01361e-22
-1.16916e-19
3.02117e-22
-1.17218e-19
3.02141e-22
-1.17521e-19
3.02898e-22
-1.17824e-19
3.02921e-22
-1.18128e-19
3.0368e-22
-1.18431e-19
3.03701e-22
-1.18736e-19
3.04462e-22
-1.1904e-19
3.0448e-22
-1.19345e-19
3.05243e-22
-1.19651e-19
3.0526e-22
-1.19957e-19
3.06025e-22
-1.20263e-19
3.0604e-22
-1.20569e-19
3.06806e-22
-1.20876e-19
3.0682e-22
-1.21184e-19
3.07588e-22
-1.21492e-19
3.076e-22
-1.218e-19
3.0837e-22
-1.22108e-19
3.08379e-22
-1.22417e-19
3.09151e-22
-1.22727e-19
3.09159e-22
-1.23036e-19
3.09933e-22
-1.23346e-19
3.09939e-22
-1.23657e-19
3.10714e-22
-1.23968e-19
3.10719e-22
-1.24279e-19
3.11496e-22
-1.24591e-19
3.11498e-22
-1.24903e-19
3.12278e-22
-1.25215e-19
3.12278e-22
-1.25528e-19
3.13059e-22
-1.25841e-19
3.13058e-22
-1.26155e-19
3.13841e-22
-1.26469e-19
3.13838e-22
-1.26783e-19
3.14623e-22
-1.27098e-19
3.14617e-22
-1.27413e-19
3.15404e-22
-1.27729e-19
3.15397e-22
-1.28045e-19
3.16186e-22
-1.28361e-19
3.16177e-22
-1.28678e-19
3.16967e-22
-1.28995e-19
3.16957e-22
-1.29313e-19
3.17749e-22
-1.2963e-19
3.17736e-22
-1.29949e-19
3.18531e-22
-1.30267e-19
3.18516e-22
-1.30587e-19
3.19312e-22
-1.30906e-19
3.19296e-22
-1.31226e-19
3.20094e-22
-1.31546e-19
3.20076e-22
-1.31867e-19
3.20876e-22
-1.32188e-19
3.20855e-22
-1.32509e-19
3.21657e-22
-1.32831e-19
3.21635e-22
-1.33153e-19
3.22439e-22
-1.33476e-19
3.22415e-22
-1.33799e-19
3.23221e-22
-1.34122e-19
3.23194e-22
-1.34446e-19
3.24002e-22
-1.3477e-19
3.23974e-22
-1.35095e-19
3.24784e-22
-1.3542e-19
3.24754e-22
-1.35745e-19
3.25566e-22
-1.36071e-19
3.25534e-22
-1.36397e-19
3.26347e-22
-1.36723e-19
3.26313e-22
-1.3705e-19
3.27129e-22
-1.37378e-19
3.27093e-22
-1.37705e-19
3.27911e-22
-1.38033e-19
3.27873e-22
-1.38362e-19
3.28692e-22
-1.38691e-19
3.28653e-22
-1.3902e-19
3.29474e-22
-1.39349e-19
3.29432e-22
-1.39679e-19
3.30256e-22
-1.4001e-19
3.30212e-22
-1.40341e-19
3.31037e-22
-1.40672e-19
3.30992e-22
-1.41003e-19
3.31819e-22
-1.41335e-19
3.31771e-22
-1.41668e-19
3.32601e-22
-1.42e-19
3.32551e-22
-1.42334e-19
3.33382e-22
-1.42667e-19
3.33331e-22
-1.43001e-19
3.34164e-22
-1.43335e-19
3.3411e-22
-1.4367e-19
3.34946e-22
-1.44005e-19
3.3489e-22
-1.44341e-19
3.35727e-22
-1.44676e-19
3.3567e-22
-1.45013e-19
3.36509e-22
-1.45349e-19
3.3645e-22
-1.45686e-19
3.37291e-22
-1.46024e-19
3.37229e-22
-1.46362e-19
3.38072e-22
-1.467e-19
3.38009e-22
-1.47039e-19
3.38854e-22
-1.47377e-19
3.38789e-22
-1.47717e-19
3.39636e-22
-1.48057e-19
3.39568e-22
-1.48397e-19
3.40417e-22
-1.48737e-19
3.40348e-22
-1.49078e-19
3.41199e-22
-1.4942e-19
3.41128e-22
-1.49761e-19
3.41981e-22
-1.50103e-19
3.41907e-22
-1.50446e-19
3.42763e-22
-1.50789e-19
3.42687e-22
-1.51132e-19
3.43544e-22
-1.51476e-19
3.43467e-22
-1.5182e-19
3.44326e-22
-1.52164e-19
3.44246e-22
-1.52509e-19
3.45108e-22
-1.52854e-19
3.45026e-22
-1.532e-19
3.45889e-22
-1.53546e-19
3.45806e-22
-1.53892e-19
3.46671e-22
-1.54239e-19
3.46585e-22
-1.54586e-19
3.47453e-22
-1.54934e-19
3.47365e-22
-1.55282e-19
3.48235e-22
-1.5563e-19
3.48145e-22
-1.55979e-19
3.49016e-22
-1.56328e-19
3.48924e-22
-1.56678e-19
3.49798e-22
-1.57028e-19
3.49704e-22
-1.57378e-19
3.5058e-22
-1.57729e-19
3.50484e-22
-1.5808e-19
3.51361e-22
-1.58431e-19
3.51263e-22
-1.58783e-19
3.52143e-22
-1.59135e-19
3.52043e-22
-1.59488e-19
3.52925e-22
-1.59841e-19
3.52822e-22
-1.60195e-19
3.53707e-22
-1.60548e-19
3.53602e-22
-1.60903e-19
3.54488e-22
-1.61257e-19
3.54382e-22
-1.61612e-19
3.5527e-22
-1.61968e-19
3.55161e-22
-1.62323e-19
3.56052e-22
-1.6268e-19
3.55941e-22
-1.63036e-19
3.56834e-22
-1.63393e-19
3.56721e-22
-1.6375e-19
3.57615e-22
-1.64108e-19
3.575e-22
-1.64466e-19
3.58397e-22
-1.64825e-19
3.5828e-22
-1.65184e-19
3.59179e-22
-1.65543e-19
3.5906e-22
-1.65903e-19
3.59961e-22
-1.66263e-19
3.59839e-22
-1.66623e-19
3.60742e-22
-1.66984e-19
3.60619e-22
-1.67345e-19
3.61524e-22
-1.67707e-19
3.61398e-22
-1.68069e-19
3.62306e-22
-1.68431e-19
3.62178e-22
-1.68794e-19
3.63088e-22
-1.69157e-19
3.62958e-22
-1.69521e-19
3.63869e-22
-1.69885e-19
3.63737e-22
-1.70249e-19
3.64651e-22
-1.70614e-19
3.64517e-22
-1.70979e-19
3.65433e-22
-1.71345e-19
3.65296e-22
-1.71711e-19
3.66215e-22
-1.72077e-19
3.66076e-22
-1.72444e-19
3.66997e-22
-1.72811e-19
3.66856e-22
-1.73178e-19
3.67778e-22
-1.73546e-19
3.67635e-22
-1.73914e-19
3.6856e-22
-1.74283e-19
3.68415e-22
-1.74652e-19
3.69342e-22
-1.75021e-19
3.69194e-22
-1.75391e-19
3.70124e-22
-1.75761e-19
3.69974e-22
-1.76132e-19
3.70905e-22
-1.76503e-19
3.70754e-22
-1.76874e-19
3.71687e-22
-1.77246e-19
3.71533e-22
-1.77618e-19
3.72469e-22
-1.77991e-19
3.72313e-22
-1.78364e-19
3.73251e-22
-1.78737e-19
3.73092e-22
-1.79111e-19
3.74033e-22
-1.79485e-19
3.73872e-22
-1.7986e-19
3.74814e-22
-1.80234e-19
3.74652e-22
-1.8061e-19
3.75596e-22
-1.80985e-19
3.75431e-22
-1.81362e-19
3.76378e-22
-1.81738e-19
3.76211e-22
-1.82115e-19
3.7716e-22
-1.82492e-19
3.7699e-22
-1.8287e-19
3.77942e-22
-1.83248e-19
3.7777e-22
-1.83626e-19
3.78723e-22
-1.84005e-19
3.78549e-22
-1.84384e-19
3.79505e-22
-1.84764e-19
3.79329e-22
-1.85144e-19
3.80287e-22
-1.85524e-19
3.80109e-22
-1.85905e-19
3.81069e-22
-1.86286e-19
3.80888e-22
-1.86668e-19
3.81851e-22
-1.87049e-19
3.81668e-22
-1.87432e-19
3.82633e-22
-1.87814e-19
3.82447e-22
-1.88198e-19
3.83414e-22
-1.88581e-19
3.83227e-22
-1.88965e-19
3.84196e-22
-1.89349e-19
3.84006e-22
-1.89734e-19
3.84978e-22
-1.90119e-19
3.84786e-22
-1.90504e-19
3.8576e-22
-1.9089e-19
3.85566e-22
-1.91276e-19
3.86542e-22
-1.91663e-19
3.86345e-22
-1.9205e-19
3.87323e-22
-1.92437e-19
3.87125e-22
-1.92825e-19
3.88105e-22
-1.93213e-19
3.87904e-22
-1.93602e-19
3.88887e-22
-1.93991e-19
3.88684e-22
-1.9438e-19
3.89669e-22
-1.9477e-19
3.89463e-22
-1.9516e-19
3.90451e-22
-1.95551e-19
3.90243e-22
-1.95941e-19
3.91233e-22
-1.96333e-19
3.91022e-22
-1.96724e-19
3.92015e-22
-1.97117e-19
3.91802e-22
-1.97509e-19
3.92796e-22
-1.97902e-19
3.92581e-22
-1.98295e-19
3.93578e-22
-1.98689e-19
3.93361e-22
-1.99083e-19
3.9436e-22
-1.99477e-19
3.9414e-22
-1.99872e-19
3.95142e-22
-2.00267e-19
3.9492e-22
-2.00663e-19
3.95924e-22
-2.01059e-19
3.95699e-22
-2.01455e-19
3.96706e-22
-2.01852e-19
3.96479e-22
-2.02249e-19
3.97487e-22
-2.02647e-19
3.97259e-22
-2.03045e-19
3.98269e-22
-2.03443e-19
3.98038e-22
-2.03842e-19
3.99051e-22
-2.04241e-19
3.98818e-22
-2.0464e-19
3.99833e-22
-2.0504e-19
3.99597e-22
-2.0544e-19
4.00615e-22
-2.05841e-19
4.00377e-22
-2.06242e-19
4.01397e-22
-2.06643e-19
4.01156e-22
-2.07045e-19
4.02179e-22
-2.07447e-19
4.01936e-22
-2.0785e-19
4.02961e-22
-2.08253e-19
4.02715e-22
-2.08657e-19
4.03742e-22
-2.0906e-19
4.03495e-22
-2.09464e-19
4.04524e-22
-2.09869e-19
4.04274e-22
-2.10274e-19
4.05306e-22
-2.10679e-19
4.05054e-22
-2.11085e-19
4.06088e-22
-2.11491e-19
4.05833e-22
-2.11898e-19
4.0687e-22
-2.12305e-19
4.06613e-22
-2.12712e-19
4.07652e-22
-2.1312e-19
4.07392e-22
-2.13528e-19
4.08434e-22
-2.13936e-19
4.08172e-22
-2.14345e-19
4.09216e-22
-2.14754e-19
4.08951e-22
-2.15164e-19
4.09998e-22
-2.15574e-19
4.09731e-22
-2.15984e-19
4.10779e-22
-2.16395e-19
4.1051e-22
-2.16806e-19
4.11561e-22
-2.17218e-19
4.11289e-22
-2.1763e-19
4.12343e-22
-2.18042e-19
4.12069e-22
-2.18455e-19
4.13125e-22
-2.18868e-19
4.12848e-22
-2.19282e-19
4.13907e-22
-2.19696e-19
4.13628e-22
-2.2011e-19
4.14689e-22
-2.20525e-19
4.14407e-22
-2.2094e-19
4.15471e-22
-2.21355e-19
4.15187e-22
-2.21771e-19
4.16253e-22
-2.22187e-19
4.15966e-22
-2.22604e-19
4.17035e-22
-2.23021e-19
4.16746e-22
-2.23439e-19
4.17817e-22
-2.23856e-19
4.17525e-22
-2.24275e-19
4.18599e-22
-2.24693e-19
4.18305e-22
-2.25112e-19
4.19381e-22
-2.25532e-19
4.19084e-22
-2.25952e-19
4.20162e-22
-2.26372e-19
4.19864e-22
-2.26792e-19
4.20944e-22
-2.27213e-19
4.20643e-22
-2.27635e-19
4.21726e-22
-2.28056e-19
4.21422e-22
-2.28478e-19
4.22508e-22
-2.28901e-19
4.22202e-22
-2.29324e-19
4.2329e-22
-2.29747e-19
4.22981e-22
-2.30171e-19
4.24072e-22
-2.30595e-19
4.23761e-22
-2.31019e-19
4.24854e-22
-2.31444e-19
4.2454e-22
-2.3187e-19
4.25636e-22
-2.32295e-19
4.2532e-22
-2.32721e-19
4.26418e-22
-2.33148e-19
4.26099e-22
-2.33574e-19
4.272e-22
-2.34002e-19
4.26879e-22
-2.34429e-19
4.27982e-22
-2.34857e-19
4.27658e-22
-2.35286e-19
4.28764e-22
-2.35714e-19
4.28437e-22
-2.36143e-19
4.29546e-22
-2.36573e-19
4.29217e-22
-2.37003e-19
4.30328e-22
-2.37433e-19
4.29996e-22
-2.37864e-19
4.3111e-22
-2.38295e-19
4.30776e-22
-2.38727e-19
4.31892e-22
-2.39159e-19
4.31555e-22
-2.39591e-19
4.32674e-22
-2.40023e-19
4.32335e-22
-2.40457e-19
4.33456e-22
-2.4089e-19
4.33114e-22
-2.41324e-19
4.34238e-22
-2.41758e-19
4.33893e-22
-2.42193e-19
4.35019e-22
-2.42628e-19
4.34673e-22
-2.43063e-19
4.35801e-22
-2.43499e-19
4.35452e-22
-2.43935e-19
4.36583e-22
-2.44372e-19
4.36232e-22
-2.44809e-19
4.37365e-22
-2.45246e-19
4.37011e-22
-2.45684e-19
4.38147e-22
-2.46122e-19
4.3779e-22
-2.4656e-19
4.38929e-22
-2.46999e-19
4.3857e-22
-2.47439e-19
4.39711e-22
-2.47878e-19
4.39349e-22
-2.48318e-19
4.40493e-22
-2.48759e-19
4.40129e-22
-2.492e-19
4.41275e-22
-2.49641e-19
4.40908e-22
-2.50083e-19
4.42057e-22
-2.50525e-19
4.41687e-22
-2.50967e-19
4.42839e-22
-2.5141e-19
4.42467e-22
-2.51853e-19
4.43621e-22
-2.52297e-19
4.43246e-22
-2.52741e-19
4.44403e-22
-2.53185e-19
4.44026e-22
-2.5363e-19
4.45185e-22
-2.54075e-19
4.44805e-22
-2.5452e-19
4.45967e-22
-2.54966e-19
4.45584e-22
-2.55413e-19
4.46749e-22
-2.55859e-19
4.46364e-22
-2.56307e-19
4.47531e-22
-2.56754e-19
4.47143e-22
-2.57202e-19
4.48313e-22
-2.5765e-19
4.47922e-22
-2.58099e-19
4.49095e-22
-2.58548e-19
4.48702e-22
-2.58997e-19
4.49877e-22
-2.59447e-19
4.49481e-22
-2.59897e-19
4.50659e-22
-2.60348e-19
4.50261e-22
-2.60799e-19
4.51441e-22
-2.61251e-19
4.5104e-22
-2.61702e-19
4.52223e-22
-2.62154e-19
4.51819e-22
-2.62607e-19
4.53005e-22
-2.6306e-19
4.52599e-22
-2.63513e-19
4.53787e-22
-2.63967e-19
4.53378e-22
-2.64421e-19
4.54569e-22
-2.64876e-19
4.54157e-22
-2.65331e-19
4.55351e-22
-2.65786e-19
4.54937e-22
-2.66242e-19
4.56133e-22
-2.66698e-19
4.55716e-22
-2.67154e-19
4.56916e-22
-2.67611e-19
4.56495e-22
-2.68068e-19
4.57698e-22
-2.68526e-19
4.57275e-22