/*--------------------------------*- C++ -*----------------------------------*\
| =========                 |                                                 |
| \\      /  F ield         | OpenFOAM: The Open Source CFD Toolbox           |
|  \\    /   O peration     | Version:  2206                                  |
|   \\  /    A nd           | Website:  www.openfoam.com                      |
|    \\/     M anipulation  |                                                 |
\*---------------------------------------------------------------------------*/
FoamFile
{
    version     2.0;
    format      ascii;
    arch        "LSB;label=32;scalar=64";
    class       volVectorField;
    location    "40";
    object      U;
}
// * * * * * * * * * * * * * * * * * * * * * * * * * * * * * * * * * * * * * //

dimensions      [0 1 -1 0 0 0 0];

internalField   nonuniform List<vector> 
100000
(
(2.3284e-11 9.50803e-07 5.32972e-12)
(1.49248e-11 1.28601e-06 5.96493e-13)
(8.77169e-13 2.45743e-06 6.64483e-14)
(-4.93561e-13 3.68107e-06 -1.10032e-13)
(-1.00322e-11 4.85047e-06 5.43524e-14)
(-2.59572e-12 4.96098e-06 7.24581e-14)
(-7.57724e-12 6.14012e-06 2.25667e-15)
(-1.1001e-11 7.36632e-06 3.59908e-14)
(-7.98356e-12 8.59239e-06 3.53923e-14)
(-1.18688e-11 9.76576e-06 -2.43731e-15)
(-9.80745e-12 9.87261e-06 1.88962e-14)
(-1.07069e-11 1.10506e-05 3.40502e-14)
(-1.18734e-11 1.2277e-05 3.20563e-14)
(-1.32505e-11 1.35033e-05 3.49492e-14)
(-1.39713e-11 1.46778e-05 1.71966e-14)
(-1.36421e-11 1.4784e-05 1.76823e-14)
(-1.4387e-11 1.59614e-05 3.41509e-14)
(-1.57928e-11 1.71879e-05 3.49259e-14)
(-1.68949e-11 1.84142e-05 3.52971e-14)
(-1.79891e-11 1.95893e-05 1.90672e-14)
(-1.7414e-11 1.96952e-05 1.78826e-14)
(-1.83922e-11 2.08723e-05 3.50769e-14)
(-1.97596e-11 2.20988e-05 3.52671e-14)
(-2.0817e-11 2.33265e-05 3.61442e-14)
(-2.22217e-11 2.45529e-05 3.57025e-14)
(-2.31782e-11 2.57283e-05 1.94822e-14)
(-2.26802e-11 2.58341e-05 1.81672e-14)
(-2.37001e-11 2.7011e-05 3.5744e-14)
(-2.49759e-11 2.82375e-05 3.52609e-14)
(-2.62421e-11 2.94639e-05 3.62088e-14)
(-2.72994e-11 3.06395e-05 1.8913e-14)
(-2.67627e-11 3.07452e-05 1.86433e-14)
(-2.78129e-11 3.19219e-05 3.53653e-14)
(-2.90936e-11 3.31484e-05 3.55543e-14)
(-3.03562e-11 3.43748e-05 3.58271e-14)
(-3.14365e-11 3.55506e-05 1.91168e-14)
(-3.08862e-11 3.56563e-05 1.84095e-14)
(-3.19644e-11 3.68329e-05 3.55801e-14)
(-3.3227e-11 3.80594e-05 3.53022e-14)
(-3.45158e-11 3.92858e-05 3.59535e-14)
(-3.55786e-11 4.04616e-05 1.88767e-14)
(-3.50532e-11 4.05673e-05 1.85863e-14)
(-3.61164e-11 4.17439e-05 3.54044e-14)
(-3.73994e-11 4.29703e-05 3.54204e-14)
(-3.86749e-11 4.41968e-05 3.57518e-14)
(-3.97549e-11 4.53727e-05 1.8969e-14)
(-3.92196e-11 4.54784e-05 1.84572e-14)
(-4.02976e-11 4.66548e-05 3.55185e-14)
(-4.15715e-11 4.78813e-05 3.52724e-14)
(-4.28592e-11 4.91078e-05 3.58209e-14)
(-4.39311e-11 5.02837e-05 1.88233e-14)
(-4.34076e-11 5.03894e-05 1.85635e-14)
(-4.44789e-11 5.15658e-05 3.54102e-14)
(-4.57624e-11 5.27923e-05 3.5345e-14)
(-4.70438e-11 5.40187e-05 3.56933e-14)
(-4.8124e-11 5.51947e-05 1.88816e-14)
(-4.75959e-11 5.53004e-05 1.84816e-14)
(-4.86747e-11 5.64768e-05 3.54849e-14)
(-4.99535e-11 5.77032e-05 3.52487e-14)
(-5.12413e-11 5.89297e-05 3.57397e-14)
(-5.23171e-11 6.01057e-05 1.87842e-14)
(-5.1796e-11 6.02114e-05 1.85565e-14)
(-5.28698e-11 6.13878e-05 3.54089e-14)
(-5.41565e-11 6.26142e-05 3.53059e-14)
(-5.54362e-11 6.38407e-05 3.56419e-14)
(-5.65246e-11 6.50167e-05 1.88425e-14)
(-5.59877e-11 6.51224e-05 1.84748e-14)
(-5.70872e-11 6.62987e-05 3.55008e-14)
(-5.83375e-11 6.75252e-05 3.51831e-14)
(-5.96724e-11 6.87517e-05 3.57546e-14)
(-6.06812e-11 6.99277e-05 1.86634e-14)
(-6.02613e-11 7.00334e-05 1.86831e-14)
(-6.11959e-11 7.12097e-05 3.52446e-14)
(-6.26807e-11 7.24362e-05 3.56935e-14)
(-6.37131e-11 7.36639e-05 3.57697e-14)
(-6.52001e-11 7.48904e-05 3.56026e-14)
(-6.61397e-11 7.60665e-05 1.8942e-14)
(-6.57139e-11 7.61722e-05 1.85137e-14)
(-6.67249e-11 7.73484e-05 3.55994e-14)
(-6.8057e-11 7.85749e-05 3.53166e-14)
(-6.93143e-11 7.98013e-05 3.57539e-14)
(-7.04156e-11 8.09775e-05 1.88051e-14)
(-6.98784e-11 8.10832e-05 1.85902e-14)
(-7.09665e-11 8.22594e-05 3.55453e-14)
(-7.22472e-11 8.34859e-05 3.53259e-14)
(-7.35387e-11 8.47123e-05 3.57288e-14)
(-7.4618e-11 8.58885e-05 1.87863e-14)
(-7.40959e-11 8.59941e-05 1.86028e-14)
(-7.51751e-11 8.71704e-05 3.55196e-14)
(-7.64618e-11 8.83968e-05 3.53357e-14)
(-7.77496e-11 8.96233e-05 3.56883e-14)
(-7.88316e-11 9.07995e-05 1.8799e-14)
(-7.83083e-11 9.09051e-05 1.85774e-14)
(-7.93892e-11 9.20813e-05 3.5538e-14)
(-8.06748e-11 9.33078e-05 3.53008e-14)
(-8.19638e-11 9.45343e-05 3.56971e-14)
(-8.30448e-11 9.57105e-05 1.87653e-14)
(-8.25231e-11 9.58161e-05 1.85993e-14)
(-8.36032e-11 9.69923e-05 3.55105e-14)
(-8.48898e-11 9.82188e-05 3.53123e-14)
(-8.61779e-11 9.94452e-05 3.56633e-14)
(-8.72599e-11 0.000100621 1.87756e-14)
(-8.67378e-11 0.000100727 1.85797e-14)
(-8.78189e-11 0.000101903 3.55241e-14)
(-8.91048e-11 0.00010313 3.52854e-14)
(-9.03938e-11 0.000104356 3.56692e-14)
(-9.14748e-11 0.000105532 1.87488e-14)
(-9.09546e-11 0.000105638 1.85981e-14)
(-9.20337e-11 0.000106814 3.54995e-14)
(-9.33229e-11 0.000108041 3.52998e-14)
(-9.46066e-11 0.000109267 3.56322e-14)
(-9.56963e-11 0.000110443 1.87727e-14)
(-9.51625e-11 0.000110549 1.85577e-14)
(-9.62637e-11 0.000111725 3.55475e-14)
(-9.75189e-11 0.000112952 3.52235e-14)
(-9.88544e-11 0.000114178 3.57146e-14)
(-9.98669e-11 0.000115354 1.86415e-14)
(-9.94466e-11 0.00011546 1.87254e-14)
(-1.00385e-10 0.000116636 3.53257e-14)
(-1.01872e-10 0.000117863 3.57022e-14)
(-1.02907e-10 0.00011909 3.57656e-14)
(-1.04395e-10 0.000120317 3.55311e-14)
(-1.05336e-10 0.000121493 1.89026e-14)
(-1.04912e-10 0.000121599 1.85325e-14)
(-1.05925e-10 0.000122775 3.56352e-14)
(-1.07259e-10 0.000124001 3.52896e-14)
(-1.08518e-10 0.000125228 3.57211e-14)
(-1.0962e-10 0.000126404 1.87455e-14)
(-1.09085e-10 0.00012651 1.86357e-14)
(-1.10174e-10 0.000127686 3.55565e-14)
(-1.11457e-10 0.000128912 3.53306e-14)
(-1.12748e-10 0.000130139 3.56788e-14)
(-1.13829e-10 0.000131315 1.87582e-14)
(-1.13308e-10 0.000131421 1.86231e-14)
(-1.14389e-10 0.000132597 3.55562e-14)
(-1.15677e-10 0.000133823 3.53217e-14)
(-1.16966e-10 0.00013505 3.56681e-14)
(-1.18048e-10 0.000136226 1.87545e-14)
(-1.17526e-10 0.000136332 1.86183e-14)
(-1.18608e-10 0.000137508 3.55548e-14)
(-1.19895e-10 0.000138734 3.53109e-14)
(-1.21184e-10 0.000139961 3.56628e-14)
(-1.22266e-10 0.000141137 1.8745e-14)
(-1.21745e-10 0.000141243 1.86202e-14)
(-1.22826e-10 0.000142419 3.5547e-14)
(-1.24114e-10 0.000143645 3.53072e-14)
(-1.25403e-10 0.000144872 3.5652e-14)
(-1.26485e-10 0.000146048 1.87418e-14)
(-1.25964e-10 0.000146154 1.86169e-14)
(-1.27045e-10 0.00014733 3.55444e-14)
(-1.28333e-10 0.000148556 3.52995e-14)
(-1.29622e-10 0.000149783 3.56456e-14)
(-1.30704e-10 0.000150959 1.87355e-14)
(-1.30183e-10 0.000151065 1.86167e-14)
(-1.31264e-10 0.000152241 3.55396e-14)
(-1.32552e-10 0.000153467 3.52941e-14)
(-1.33841e-10 0.000154694 3.56386e-14)
(-1.34923e-10 0.00015587 1.87296e-14)
(-1.34403e-10 0.000155976 1.8618e-14)
(-1.35483e-10 0.000157152 3.55313e-14)
(-1.36773e-10 0.000158378 3.52961e-14)
(-1.38057e-10 0.000159605 3.562e-14)
(-1.39147e-10 0.000160781 1.87432e-14)
(-1.38614e-10 0.000160887 1.85897e-14)
(-1.39715e-10 0.000162063 3.55676e-14)
(-1.40972e-10 0.000163289 3.52335e-14)
(-1.42307e-10 0.000164516 3.56951e-14)
(-1.43321e-10 0.000165692 1.86251e-14)
(-1.429e-10 0.000165798 1.87472e-14)
(-1.4384e-10 0.000166974 3.5355e-14)
(-1.45326e-10 0.0001682 3.57056e-14)
(-1.46363e-10 0.000169428 3.57541e-14)
(-1.4785e-10 0.000170654 3.54959e-14)
(-1.48792e-10 0.000171831 1.88762e-14)
(-1.48369e-10 0.000171936 1.85441e-14)
(-1.49382e-10 0.000173112 3.56431e-14)
(-1.50716e-10 0.000174339 3.5276e-14)
(-1.51975e-10 0.000175565 3.56944e-14)
(-1.53077e-10 0.000176742 1.87179e-14)
(-1.52543e-10 0.000176847 1.86511e-14)
(-1.53632e-10 0.000178023 3.55625e-14)
(-1.54916e-10 0.00017925 3.53225e-14)
(-1.56208e-10 0.000180476 3.56533e-14)
(-1.57289e-10 0.000181653 1.87354e-14)
(-1.56768e-10 0.000181758 1.8637e-14)
(-1.5785e-10 0.000182934 3.55646e-14)
(-1.59137e-10 0.000184161 3.53152e-14)
(-1.60427e-10 0.000185387 3.56461e-14)
(-1.61509e-10 0.000186564 1.87341e-14)
(-1.60988e-10 0.000186669 1.86316e-14)
(-1.62069e-10 0.000187845 3.55653e-14)
(-1.63357e-10 0.000189072 3.53051e-14)
(-1.64646e-10 0.000190298 3.56456e-14)
(-1.65729e-10 0.000191475 1.87246e-14)
(-1.65208e-10 0.00019158 1.8636e-14)
(-1.6629e-10 0.000192756 3.55557e-14)
(-1.67577e-10 0.000193983 3.53064e-14)
(-1.68866e-10 0.000195209 3.56337e-14)
(-1.69949e-10 0.000196386 1.87273e-14)
(-1.69428e-10 0.000196491 1.86283e-14)
(-1.70509e-10 0.000197667 3.55587e-14)
(-1.71797e-10 0.000198894 3.5295e-14)
(-1.73086e-10 0.00020012 3.56356e-14)
(-1.74168e-10 0.000201297 1.87157e-14)
(-1.73648e-10 0.000201402 1.86364e-14)
(-1.74729e-10 0.000202578 3.55441e-14)
(-1.76019e-10 0.000203805 3.53048e-14)
(-1.77303e-10 0.000205031 3.56121e-14)
(-1.78393e-10 0.000206208 1.87371e-14)
(-1.7786e-10 0.000206313 1.86015e-14)
(-1.78962e-10 0.000207489 3.55872e-14)
(-1.80219e-10 0.000208716 3.52369e-14)
(-1.81554e-10 0.000209942 3.5695e-14)
(-1.82568e-10 0.000211119 1.8614e-14)
(-1.82147e-10 0.000211224 1.8765e-14)
(-1.83087e-10 0.0002124 3.53686e-14)
(-1.84574e-10 0.000213627 3.57159e-14)
(-1.8561e-10 0.000214854 3.57478e-14)
(-1.87098e-10 0.000216081 3.54865e-14)
(-1.8804e-10 0.000217257 1.88608e-14)
(-1.87617e-10 0.000217363 1.8556e-14)
(-1.88631e-10 0.000218539 3.5647e-14)
(-1.89965e-10 0.000219765 3.52766e-14)
(-1.91223e-10 0.000220992 3.5681e-14)
(-1.92326e-10 0.000222168 1.87093e-14)
(-1.91792e-10 0.000222274 1.86577e-14)
(-1.92881e-10 0.00022345 3.55725e-14)
(-1.94165e-10 0.000224676 3.53189e-14)
(-1.95456e-10 0.000225903 3.56468e-14)
(-1.96538e-10 0.000227079 1.87226e-14)
(-1.96017e-10 0.000227185 1.86488e-14)
(-1.97099e-10 0.000228361 3.55702e-14)
(-1.98387e-10 0.000229587 3.53178e-14)
(-1.99676e-10 0.000230814 3.5636e-14)
(-2.00758e-10 0.00023199 1.87273e-14)
(-2.00237e-10 0.000232096 1.86385e-14)
(-2.01319e-10 0.000233272 3.55765e-14)
(-2.02607e-10 0.000234498 3.53038e-14)
(-2.03896e-10 0.000235725 3.56416e-14)
(-2.04979e-10 0.000236901 1.8714e-14)
(-2.04457e-10 0.000237007 1.86478e-14)
(-2.05539e-10 0.000238183 3.55626e-14)
(-2.06827e-10 0.000239409 3.53106e-14)
(-2.08116e-10 0.000240636 3.56263e-14)
(-2.09199e-10 0.000241812 1.87221e-14)
(-2.08678e-10 0.000241918 1.86356e-14)
(-2.0976e-10 0.000243094 3.55705e-14)
(-2.11048e-10 0.00024432 3.52958e-14)
(-2.12337e-10 0.000245547 3.56332e-14)
(-2.13419e-10 0.000246723 1.87081e-14)
(-2.12898e-10 0.000246829 1.86457e-14)
(-2.1398e-10 0.000248005 3.55562e-14)
(-2.15268e-10 0.000249231 3.53036e-14)
(-2.16557e-10 0.000250458 3.5618e-14)
(-2.17639e-10 0.000251634 1.87161e-14)
(-2.17119e-10 0.00025174 1.86351e-14)
(-2.182e-10 0.000252916 3.55611e-14)
(-2.1949e-10 0.000254142 3.52951e-14)
(-2.20775e-10 0.000255369 3.5615e-14)
(-2.21865e-10 0.000256545 1.87187e-14)
(-2.21331e-10 0.000256651 1.862e-14)
(-2.22433e-10 0.000257827 3.55848e-14)
(-2.2369e-10 0.000259053 3.5248e-14)
(-2.25026e-10 0.00026028 3.56787e-14)
(-2.26039e-10 0.000261456 1.86168e-14)
(-2.25619e-10 0.000261562 1.87631e-14)
(-2.26559e-10 0.000262738 3.53873e-14)
(-2.28046e-10 0.000263964 3.57068e-14)
(-2.29082e-10 0.000265192 3.57525e-14)
(-2.3057e-10 0.000266418 3.54634e-14)
(-2.31511e-10 0.000267595 1.88609e-14)
(-2.31089e-10 0.0002677 1.85496e-14)
(-2.32102e-10 0.000268877 3.56593e-14)
(-2.33437e-10 0.000270103 3.52604e-14)
(-2.34695e-10 0.000271329 3.56811e-14)
(-2.35798e-10 0.000272506 1.8688e-14)
(-2.35264e-10 0.000272611 1.86739e-14)
(-2.36353e-10 0.000273787 3.55629e-14)
(-2.37637e-10 0.000275014 3.53265e-14)
(-2.38929e-10 0.00027624 3.5625e-14)
(-2.4001e-10 0.000277417 1.87252e-14)
(-2.39489e-10 0.000277522 1.86419e-14)
(-2.40571e-10 0.000278698 3.55846e-14)
(-2.41859e-10 0.000279925 3.53025e-14)
(-2.43148e-10 0.000281151 3.56391e-14)
(-2.44231e-10 0.000282328 1.87066e-14)
(-2.4371e-10 0.000282433 1.86559e-14)
(-2.44792e-10 0.000283609 3.55672e-14)
(-2.4608e-10 0.000284836 3.53137e-14)
(-2.47369e-10 0.000286062 3.56211e-14)
(-2.48451e-10 0.000287239 1.87187e-14)
(-2.4793e-10 0.000287344 1.86404e-14)
(-2.49012e-10 0.00028852 3.55789e-14)
(-2.503e-10 0.000289747 3.5296e-14)
(-2.51589e-10 0.000290973 3.5632e-14)
(-2.52672e-10 0.00029215 1.87019e-14)
(-2.52151e-10 0.000292255 1.86539e-14)
(-2.53233e-10 0.000293431 3.55616e-14)
(-2.54521e-10 0.000294658 3.53076e-14)
(-2.5581e-10 0.000295884 3.56142e-14)
(-2.56892e-10 0.000297061 1.87136e-14)
(-2.56372e-10 0.000297166 1.86401e-14)
(-2.57453e-10 0.000298342 3.557e-14)
(-2.58743e-10 0.000299569 3.52964e-14)
(-2.60028e-10 0.000300795 3.56151e-14)
(-2.61118e-10 0.000301972 1.87135e-14)
(-2.60584e-10 0.000302077 1.86283e-14)
(-2.61686e-10 0.000303253 3.55909e-14)
(-2.62943e-10 0.00030448 3.52529e-14)
(-2.64279e-10 0.000305706 3.56763e-14)
(-2.65292e-10 0.000306883 1.8615e-14)
(-2.64872e-10 0.000306988 1.87683e-14)
(-2.65812e-10 0.000308164 3.53966e-14)
(-2.67299e-10 0.000309391 3.57091e-14)
(-2.68335e-10 0.000310619 3.57531e-14)
(-2.69823e-10 0.000311845 3.54569e-14)
(-2.70764e-10 0.000313021 1.88571e-14)
(-2.70342e-10 0.000313127 1.85524e-14)
(-2.71356e-10 0.000314303 3.56643e-14)
(-2.7269e-10 0.00031553 3.52585e-14)
(-2.73949e-10 0.000316756 3.56783e-14)
(-2.75051e-10 0.000317932 1.86816e-14)
(-2.74517e-10 0.000318038 1.86798e-14)
(-2.75607e-10 0.000319214 3.55652e-14)
(-2.76891e-10 0.00032044 3.5328e-14)
(-2.78182e-10 0.000321667 3.56198e-14)
(-2.79263e-10 0.000322843 1.87222e-14)
(-2.78743e-10 0.000322949 1.86449e-14)
(-2.79825e-10 0.000324125 3.55903e-14)
(-2.81113e-10 0.000325351 3.53016e-14)
(-2.82402e-10 0.000326578 3.56374e-14)
(-2.83484e-10 0.000327754 1.87011e-14)
(-2.82963e-10 0.00032786 1.86619e-14)
(-2.84045e-10 0.000329036 3.55703e-14)
(-2.85334e-10 0.000330262 3.5316e-14)
(-2.86622e-10 0.000331489 3.56171e-14)
(-2.87705e-10 0.000332665 1.87164e-14)
(-2.87184e-10 0.000332771 1.86437e-14)
(-2.88266e-10 0.000333947 3.55851e-14)
(-2.89554e-10 0.000335173 3.5296e-14)
(-2.90843e-10 0.0003364 3.56314e-14)
(-2.91926e-10 0.000337576 1.86972e-14)
(-2.91405e-10 0.000337682 1.86601e-14)
(-2.92487e-10 0.000338858 3.55652e-14)
(-2.93775e-10 0.000340084 3.5311e-14)
(-2.95064e-10 0.000341311 3.56107e-14)
(-2.96146e-10 0.000342487 1.87131e-14)
(-2.95625e-10 0.000342593 1.86413e-14)
(-2.96707e-10 0.000343769 3.55808e-14)
(-2.97995e-10 0.000344995 3.52903e-14)
(-2.99284e-10 0.000346222 3.56264e-14)
(-3.00367e-10 0.000347398 1.86922e-14)
(-2.99846e-10 0.000347504 1.86607e-14)
(-3.00927e-10 0.00034868 3.55564e-14)
(-3.02218e-10 0.000349906 3.53128e-14)
(-3.03502e-10 0.000351133 3.55943e-14)
(-3.04592e-10 0.000352309 1.8726e-14)
(-3.04059e-10 0.000352415 1.86153e-14)
(-3.05161e-10 0.000353591 3.56114e-14)
(-3.06418e-10 0.000354817 3.52358e-14)
(-3.07753e-10 0.000356044 3.569e-14)
(-3.08767e-10 0.00035722 1.85938e-14)
(-3.08346e-10 0.000357326 1.87897e-14)
(-3.09287e-10 0.000358502 3.5383e-14)
(-3.10774e-10 0.000359728 3.57269e-14)
(-3.1181e-10 0.000360956 3.57321e-14)
(-3.13297e-10 0.000362183 3.54678e-14)
(-3.14239e-10 0.000363359 1.88338e-14)
(-3.13817e-10 0.000363465 1.85722e-14)
(-3.14831e-10 0.000364641 3.56468e-14)
(-3.16165e-10 0.000365867 3.52732e-14)
(-3.17423e-10 0.000367094 3.56543e-14)
(-3.18526e-10 0.00036827 1.86941e-14)
(-3.17992e-10 0.000368376 1.86642e-14)
(-3.19082e-10 0.000369552 3.55838e-14)
(-3.20366e-10 0.000370778 3.53075e-14)
(-3.21657e-10 0.000372004 3.56323e-14)
(-3.22738e-10 0.000373181 1.86991e-14)
(-3.22218e-10 0.000373287 1.86655e-14)
(-3.233e-10 0.000374463 3.5573e-14)
(-3.24588e-10 0.000375689 3.53178e-14)
(-3.25877e-10 0.000376915 3.56139e-14)
(-3.26959e-10 0.000378092 1.87148e-14)
(-3.26438e-10 0.000378198 1.8646e-14)
(-3.2752e-10 0.000379374 3.559e-14)
(-3.28809e-10 0.0003806 3.52958e-14)
(-3.30097e-10 0.000381826 3.5631e-14)
(-3.3118e-10 0.000383003 1.86934e-14)
(-3.30659e-10 0.000383108 1.8665e-14)
(-3.31741e-10 0.000384284 3.55679e-14)
(-3.33029e-10 0.000385511 3.53135e-14)
(-3.34318e-10 0.000386737 3.56083e-14)
(-3.35401e-10 0.000387914 1.8712e-14)
(-3.3488e-10 0.000388019 1.86438e-14)
(-3.35962e-10 0.000389195 3.55862e-14)
(-3.3725e-10 0.000390422 3.52907e-14)
(-3.38539e-10 0.000391648 3.56267e-14)
(-3.39621e-10 0.000392825 1.86889e-14)
(-3.39101e-10 0.00039293 1.86657e-14)
(-3.40182e-10 0.000394106 3.55596e-14)
(-3.41472e-10 0.000395333 3.53158e-14)
(-3.42757e-10 0.000396559 3.55926e-14)
(-3.43847e-10 0.000397736 1.87254e-14)
(-3.43313e-10 0.000397841 1.86179e-14)
(-3.44415e-10 0.000399017 3.56171e-14)
(-3.45673e-10 0.000400244 3.52367e-14)
(-3.47008e-10 0.00040147 3.5691e-14)
(-3.48022e-10 0.000402647 1.85909e-14)
(-3.476e-10 0.000402752 1.87948e-14)
(-3.48541e-10 0.000403928 3.53864e-14)
(-3.50028e-10 0.000405155 3.57305e-14)
(-3.51064e-10 0.000406383 3.57307e-14)
(-3.52552e-10 0.000407609 3.54665e-14)
(-3.53494e-10 0.000408785 1.88297e-14)
(-3.53071e-10 0.000408891 1.85759e-14)
(-3.54085e-10 0.000410067 3.56479e-14)
(-3.5542e-10 0.000411294 3.52744e-14)
(-3.56678e-10 0.00041252 3.5651e-14)
(-3.5778e-10 0.000413696 1.86926e-14)
(-3.57247e-10 0.000413802 1.86657e-14)
(-3.58336e-10 0.000414978 3.55874e-14)
(-3.5962e-10 0.000416205 3.53066e-14)
(-3.60912e-10 0.000417431 3.56316e-14)
(-3.61993e-10 0.000418607 1.86955e-14)
(-3.61472e-10 0.000418713 1.86694e-14)
(-3.62554e-10 0.000419889 3.55745e-14)
(-3.63843e-10 0.000421116 3.53195e-14)
(-3.65131e-10 0.000422342 3.56112e-14)
(-3.66214e-10 0.000423518 1.87138e-14)
(-3.65693e-10 0.000423624 1.86477e-14)
(-3.66775e-10 0.0004248 3.55941e-14)
(-3.68063e-10 0.000426027 3.52954e-14)
(-3.69352e-10 0.000427253 3.5631e-14)
(-3.70435e-10 0.000428429 1.86902e-14)
(-3.69914e-10 0.000428535 1.8669e-14)
(-3.70996e-10 0.000429711 3.55698e-14)
(-3.72284e-10 0.000430937 3.53157e-14)
(-3.73573e-10 0.000432164 3.56062e-14)
(-3.74655e-10 0.00043334 1.87113e-14)
(-3.74134e-10 0.000433446 1.86456e-14)
(-3.75216e-10 0.000434622 3.55905e-14)
(-3.76505e-10 0.000435848 3.5291e-14)
(-3.77793e-10 0.000437075 3.56266e-14)
(-3.78876e-10 0.000438251 1.86873e-14)
(-3.78355e-10 0.000438357 1.86675e-14)
(-3.79437e-10 0.000439533 3.55659e-14)
(-3.80725e-10 0.000440759 3.53116e-14)
(-3.82014e-10 0.000441986 3.56021e-14)
(-3.83096e-10 0.000443162 1.87078e-14)
(-3.82576e-10 0.000443268 1.8646e-14)
(-3.83657e-10 0.000444444 3.55831e-14)
(-3.84948e-10 0.00044567 3.52934e-14)
(-3.86232e-10 0.000446897 3.5612e-14)
(-3.87322e-10 0.000448073 1.87005e-14)
(-3.86789e-10 0.000448179 1.86423e-14)
(-3.87891e-10 0.000449355 3.55967e-14)
(-3.89148e-10 0.000450581 3.52587e-14)
(-3.90483e-10 0.000451808 3.56665e-14)
(-3.91497e-10 0.000452984 1.86106e-14)
(-3.91076e-10 0.00045309 1.87748e-14)
(-3.92017e-10 0.000454266 3.54108e-14)
(-3.93504e-10 0.000455492 3.57081e-14)
(-3.9454e-10 0.00045672 3.57508e-14)
(-3.96028e-10 0.000457947 3.54397e-14)
(-3.96969e-10 0.000459123 1.88487e-14)
(-3.96547e-10 0.000459229 1.85545e-14)
(-3.97561e-10 0.000460405 3.56705e-14)
(-3.98895e-10 0.000461631 3.52497e-14)
(-4.00154e-10 0.000462858 3.56698e-14)
(-4.01256e-10 0.000464034 1.86664e-14)
(-4.00722e-10 0.00046414 1.86898e-14)
(-4.01812e-10 0.000465316 3.55646e-14)
(-4.03096e-10 0.000466542 3.53278e-14)
(-4.04387e-10 0.000467769 3.56049e-14)
(-4.05468e-10 0.000468945 1.87154e-14)
(-4.04948e-10 0.000469051 1.86476e-14)
(-4.0603e-10 0.000470227 3.55981e-14)
(-4.07318e-10 0.000471453 3.52948e-14)
(-4.08607e-10 0.00047268 3.56311e-14)
(-4.0969e-10 0.000473856 1.86875e-14)
(-4.09169e-10 0.000473962 1.86724e-14)
(-4.10251e-10 0.000475138 3.55712e-14)
(-4.11539e-10 0.000476364 3.53176e-14)
(-4.12828e-10 0.000477591 3.56044e-14)
(-4.1391e-10 0.000478767 1.87109e-14)
(-4.13389e-10 0.000478873 1.86469e-14)
(-4.14471e-10 0.000480049 3.55942e-14)
(-4.1576e-10 0.000481275 3.5291e-14)
(-4.17048e-10 0.000482501 3.56272e-14)
(-4.18131e-10 0.000483678 1.86849e-14)
(-4.1761e-10 0.000483784 1.8671e-14)
(-4.18692e-10 0.00048496 3.55676e-14)
(-4.1998e-10 0.000486186 3.53139e-14)
(-4.21269e-10 0.000487412 3.56007e-14)
(-4.22351e-10 0.000488589 1.87076e-14)
(-4.21831e-10 0.000488695 1.86474e-14)
(-4.22912e-10 0.000489871 3.55871e-14)
(-4.24203e-10 0.000491097 3.52937e-14)
(-4.25487e-10 0.000492323 3.5613e-14)
(-4.26577e-10 0.0004935 1.86984e-14)
(-4.26044e-10 0.000493606 1.86459e-14)
(-4.27146e-10 0.000494781 3.55987e-14)
(-4.28403e-10 0.000496008 3.52613e-14)
(-4.29738e-10 0.000497234 3.56655e-14)
(-4.30752e-10 0.000498411 1.86107e-14)
(-4.30331e-10 0.000498516 1.87763e-14)
(-4.31272e-10 0.000499692 3.5415e-14)
(-4.32759e-10 0.000500919 3.57087e-14)
(-4.33795e-10 0.000502147 3.57519e-14)
(-4.35283e-10 0.000503373 3.54372e-14)
(-4.36224e-10 0.00050455 1.88481e-14)
(-4.35802e-10 0.000504655 1.85552e-14)
(-4.36816e-10 0.000505831 3.56732e-14)
(-4.3815e-10 0.000507058 3.52488e-14)
(-4.39409e-10 0.000508284 3.56696e-14)
(-4.40511e-10 0.000509461 1.86638e-14)
(-4.39977e-10 0.000509566 1.86927e-14)
(-4.41067e-10 0.000510742 3.55653e-14)
(-4.42351e-10 0.000511969 3.53293e-14)
(-4.43642e-10 0.000513195 3.56028e-14)
(-4.44724e-10 0.000514372 1.8715e-14)
(-4.44203e-10 0.000514477 1.86484e-14)
(-4.45285e-10 0.000515653 3.5601e-14)
(-4.46573e-10 0.00051688 3.52943e-14)
(-4.47862e-10 0.000518106 3.56314e-14)
(-4.48945e-10 0.000519282 1.86851e-14)
(-4.48424e-10 0.000519388 1.86754e-14)
(-4.49506e-10 0.000520564 3.55722e-14)
(-4.50794e-10 0.000521791 3.53194e-14)
(-4.52083e-10 0.000523017 3.56027e-14)
(-4.53165e-10 0.000524193 1.87108e-14)
(-4.52644e-10 0.000524299 1.86479e-14)
(-4.53726e-10 0.000525475 3.55975e-14)
(-4.55015e-10 0.000526702 3.52908e-14)
(-4.56304e-10 0.000527928 3.56278e-14)
(-4.57386e-10 0.000529104 1.86827e-14)
(-4.56865e-10 0.00052921 1.86741e-14)
(-4.57947e-10 0.000530386 3.55688e-14)
(-4.59236e-10 0.000531613 3.53162e-14)
(-4.60524e-10 0.000532839 3.55988e-14)
(-4.61607e-10 0.000534015 1.87089e-14)
(-4.61086e-10 0.000534121 1.86461e-14)
(-4.62168e-10 0.000535297 3.55947e-14)
(-4.63456e-10 0.000536524 3.5287e-14)
(-4.64745e-10 0.00053775 3.56249e-14)
(-4.65827e-10 0.000538926 1.86792e-14)
(-4.65307e-10 0.000539032 1.86752e-14)
(-4.66388e-10 0.000540208 3.55616e-14)
(-4.67679e-10 0.000541434 3.53198e-14)
(-4.68963e-10 0.000542661 3.55845e-14)
(-4.70053e-10 0.000543837 1.87231e-14)
(-4.6952e-10 0.000543943 1.86207e-14)
(-4.70622e-10 0.000545119 3.56265e-14)
(-4.71879e-10 0.000546345 3.52342e-14)
(-4.73214e-10 0.000547572 3.56906e-14)
(-4.74228e-10 0.000548748 1.85821e-14)
(-4.73807e-10 0.000548854 1.88047e-14)
(-4.74748e-10 0.00055003 3.53893e-14)
(-4.76235e-10 0.000551256 3.57356e-14)
(-4.77271e-10 0.000552484 3.57232e-14)
(-4.78759e-10 0.000553711 3.54613e-14)
(-4.797e-10 0.000554887 1.88184e-14)
(-4.79278e-10 0.000554993 1.8583e-14)
(-4.80292e-10 0.000556169 3.56458e-14)
(-4.81626e-10 0.000557395 3.52746e-14)
(-4.82885e-10 0.000558622 3.56395e-14)
(-4.83987e-10 0.000559798 1.86888e-14)
(-4.83453e-10 0.000559904 1.86661e-14)
(-4.84543e-10 0.00056108 3.55927e-14)
(-4.85827e-10 0.000562306 3.53005e-14)
(-4.87118e-10 0.000563533 3.56277e-14)
(-4.882e-10 0.000564709 1.86852e-14)
(-4.87679e-10 0.000564815 1.86769e-14)
(-4.88761e-10 0.000565991 3.55735e-14)
(-4.90049e-10 0.000567217 3.53208e-14)
(-4.91338e-10 0.000568444 3.56012e-14)
(-4.92421e-10 0.00056962 1.87108e-14)
(-4.919e-10 0.000569726 1.86485e-14)
(-4.92982e-10 0.000570902 3.56004e-14)
(-4.9427e-10 0.000572128 3.52905e-14)
(-4.95559e-10 0.000573355 3.56284e-14)
(-4.96641e-10 0.000574531 1.86808e-14)
(-4.9612e-10 0.000574637 1.86769e-14)
(-4.97203e-10 0.000575813 3.55697e-14)
(-4.98491e-10 0.000577039 3.53181e-14)
(-4.9978e-10 0.000578266 3.55975e-14)
(-5.00862e-10 0.000579442 1.87091e-14)
(-5.00341e-10 0.000579548 1.86468e-14)
(-5.01423e-10 0.000580724 3.55978e-14)
(-5.02712e-10 0.00058195 3.52869e-14)
(-5.04e-10 0.000583177 3.56259e-14)
(-5.05083e-10 0.000584353 1.86774e-14)
(-5.04562e-10 0.000584459 1.8678e-14)
(-5.05643e-10 0.000585635 3.55627e-14)
(-5.06934e-10 0.000586861 3.53219e-14)
(-5.08218e-10 0.000588088 3.55836e-14)
(-5.09308e-10 0.000589264 1.87235e-14)
(-5.08775e-10 0.00058937 1.86215e-14)
(-5.09877e-10 0.000590546 3.56298e-14)
(-5.11135e-10 0.000591772 3.52344e-14)
(-5.1247e-10 0.000592998 3.56919e-14)
(-5.13484e-10 0.000594175 1.85805e-14)
(-5.13062e-10 0.000594281 1.88076e-14)
(-5.14003e-10 0.000595457 3.53906e-14)
(-5.1549e-10 0.000596683 3.57379e-14)
(-5.16526e-10 0.000597911 3.57223e-14)
(-5.18014e-10 0.000599137 3.54615e-14)
(-5.18955e-10 0.000600314 1.88163e-14)
(-5.18533e-10 0.000600419 1.85854e-14)
(-5.19547e-10 0.000601595 3.5646e-14)
(-5.20882e-10 0.000602822 3.52758e-14)
(-5.2214e-10 0.000604048 3.56378e-14)
(-5.23242e-10 0.000605225 1.86887e-14)
(-5.22709e-10 0.00060533 1.86664e-14)
(-5.23798e-10 0.000606506 3.55951e-14)
(-5.25082e-10 0.000607733 3.52998e-14)
(-5.26373e-10 0.000608959 3.56282e-14)
(-5.27455e-10 0.000610136 1.86832e-14)
(-5.26934e-10 0.000610241 1.86793e-14)
(-5.28016e-10 0.000611417 3.55739e-14)
(-5.29305e-10 0.000612644 3.53223e-14)
(-5.30593e-10 0.00061387 3.55997e-14)
(-5.31676e-10 0.000615047 1.87109e-14)
(-5.31155e-10 0.000615152 1.86489e-14)
(-5.32237e-10 0.000616328 3.5603e-14)
(-5.33525e-10 0.000617555 3.52901e-14)
(-5.34814e-10 0.000618781 3.56291e-14)
(-5.35897e-10 0.000619958 1.86789e-14)
(-5.35376e-10 0.000620063 1.86794e-14)
(-5.36458e-10 0.000621239 3.55704e-14)
(-5.37746e-10 0.000622466 3.53199e-14)
(-5.39035e-10 0.000623692 3.55963e-14)
(-5.40117e-10 0.000624869 1.87094e-14)
(-5.39596e-10 0.000624974 1.86473e-14)
(-5.40679e-10 0.00062615 3.56005e-14)
(-5.41967e-10 0.000627377 3.5287e-14)
(-5.43256e-10 0.000628603 3.56263e-14)
(-5.44338e-10 0.00062978 1.8677e-14)
(-5.43817e-10 0.000629885 1.86783e-14)
(-5.44899e-10 0.000631061 3.55676e-14)
(-5.46188e-10 0.000632288 3.5317e-14)
(-5.47476e-10 0.000633514 3.55936e-14)
(-5.48559e-10 0.00063469 1.87067e-14)
(-5.48038e-10 0.000634796 1.86481e-14)
(-5.49119e-10 0.000635972 3.55941e-14)
(-5.5041e-10 0.000637199 3.52906e-14)
(-5.51694e-10 0.000638425 3.5613e-14)
(-5.52784e-10 0.000639601 1.86911e-14)
(-5.52251e-10 0.000639707 1.86534e-14)
(-5.53353e-10 0.000640883 3.55994e-14)
(-5.54611e-10 0.00064211 3.52652e-14)
(-5.55946e-10 0.000643336 3.56594e-14)
(-5.5696e-10 0.000644512 1.86103e-14)
(-5.56538e-10 0.000644618 1.87774e-14)
(-5.57479e-10 0.000645794 3.54226e-14)
(-5.58966e-10 0.000647021 3.57064e-14)
(-5.60002e-10 0.000648248 3.57523e-14)
(-5.6149e-10 0.000649475 3.54278e-14)
(-5.62431e-10 0.000650651 1.88459e-14)
(-5.62009e-10 0.000650757 1.85543e-14)
(-5.63023e-10 0.000651933 3.56773e-14)
(-5.64358e-10 0.000653159 3.52431e-14)
(-5.65616e-10 0.000654386 3.56673e-14)
(-5.66718e-10 0.000655562 1.86553e-14)
(-5.66185e-10 0.000655668 1.86987e-14)
(-5.67274e-10 0.000656844 3.55632e-14)
(-5.68558e-10 0.00065807 3.53306e-14)
(-5.6985e-10 0.000659297 3.55943e-14)
(-5.70931e-10 0.000660473 1.87135e-14)
(-5.7041e-10 0.000660579 1.86479e-14)
(-5.71492e-10 0.000661755 3.56059e-14)
(-5.72781e-10 0.000662981 3.52894e-14)
(-5.74069e-10 0.000664208 3.563e-14)
(-5.75152e-10 0.000665384 1.86772e-14)
(-5.74631e-10 0.00066549 1.86817e-14)
(-5.75713e-10 0.000666666 3.55708e-14)
(-5.77001e-10 0.000667892 3.53215e-14)
(-5.7829e-10 0.000669119 3.55951e-14)
(-5.79373e-10 0.000670295 1.87098e-14)
(-5.78852e-10 0.000670401 1.86476e-14)
(-5.79934e-10 0.000671577 3.5603e-14)
(-5.81222e-10 0.000672803 3.52867e-14)
(-5.82511e-10 0.00067403 3.56272e-14)
(-5.83593e-10 0.000675206 1.86754e-14)
(-5.83072e-10 0.000675312 1.86806e-14)
(-5.84155e-10 0.000676488 3.55682e-14)
(-5.85443e-10 0.000677714 3.53188e-14)
(-5.86732e-10 0.000678941 3.55926e-14)
(-5.87814e-10 0.000680117 1.87072e-14)
(-5.87294e-10 0.000680223 1.86485e-14)
(-5.88375e-10 0.000681399 3.55968e-14)
(-5.89665e-10 0.000682625 3.52904e-14)
(-5.9095e-10 0.000683852 3.56142e-14)
(-5.9204e-10 0.000685028 1.86896e-14)
(-5.91506e-10 0.000685134 1.86558e-14)
(-5.92608e-10 0.00068631 3.56001e-14)
(-5.93866e-10 0.000687536 3.52672e-14)
(-5.95201e-10 0.000688763 3.56586e-14)
(-5.96215e-10 0.000689939 1.8611e-14)
(-5.95794e-10 0.000690045 1.87778e-14)
(-5.96734e-10 0.000691221 3.54254e-14)
(-5.98222e-10 0.000692447 3.57065e-14)
(-5.99258e-10 0.000693675 3.57535e-14)
(-6.00745e-10 0.000694901 3.54263e-14)
(-6.01687e-10 0.000696078 1.88461e-14)
(-6.01265e-10 0.000696183 1.85543e-14)
(-6.02278e-10 0.000697359 3.56794e-14)
(-6.03613e-10 0.000698586 3.52424e-14)
(-6.04871e-10 0.000699812 3.56679e-14)
(-6.05974e-10 0.000700989 1.86536e-14)
(-6.0544e-10 0.000701094 1.87007e-14)
(-6.0653e-10 0.00070227 3.55633e-14)
(-6.07814e-10 0.000703497 3.5332e-14)
(-6.09105e-10 0.000704723 3.5593e-14)
(-6.10186e-10 0.0007059 1.87138e-14)
(-6.09666e-10 0.000706005 1.8648e-14)
(-6.10748e-10 0.000707181 3.56081e-14)
(-6.12036e-10 0.000708408 3.52888e-14)
(-6.13325e-10 0.000709634 3.56307e-14)
(-6.14407e-10 0.000710811 1.86756e-14)
(-6.13886e-10 0.000710916 1.86838e-14)
(-6.14968e-10 0.000712092 3.55711e-14)
(-6.16257e-10 0.000713319 3.53231e-14)
(-6.17546e-10 0.000714545 3.5594e-14)
(-6.18628e-10 0.000715722 1.87103e-14)
(-6.18107e-10 0.000715827 1.86478e-14)
(-6.19189e-10 0.000717003 3.56053e-14)
(-6.20478e-10 0.00071823 3.52863e-14)
(-6.21766e-10 0.000719456 3.56282e-14)
(-6.22849e-10 0.000720633 1.86739e-14)
(-6.22328e-10 0.000720738 1.86828e-14)
(-6.2341e-10 0.000721914 3.55685e-14)
(-6.24698e-10 0.000723141 3.53208e-14)
(-6.25987e-10 0.000724367 3.55911e-14)
(-6.2707e-10 0.000725544 1.8709e-14)
(-6.26549e-10 0.000725649 1.86464e-14)
(-6.27631e-10 0.000726825 3.56033e-14)
(-6.28919e-10 0.000728052 3.52834e-14)
(-6.30208e-10 0.000729278 3.56264e-14)
(-6.3129e-10 0.000730455 1.8671e-14)
(-6.3077e-10 0.00073056 1.86842e-14)
(-6.31851e-10 0.000731736 3.5562e-14)
(-6.33141e-10 0.000732963 3.53252e-14)
(-6.34426e-10 0.000734189 3.55778e-14)
(-6.35516e-10 0.000735366 1.87238e-14)
(-6.34983e-10 0.000735471 1.86212e-14)
(-6.36084e-10 0.000736647 3.56359e-14)
(-6.37342e-10 0.000737874 3.52315e-14)
(-6.38677e-10 0.0007391 3.5693e-14)
(-6.39691e-10 0.000740277 1.85745e-14)
(-6.3927e-10 0.000740382 1.8814e-14)
(-6.4021e-10 0.000741558 3.53903e-14)