/*--------------------------------*- C++ -*----------------------------------*\
| =========                 |                                                 |
| \\      /  F ield         | OpenFOAM: The Open Source CFD Toolbox           |
|  \\    /   O peration     | Version:  2206                                  |
|   \\  /    A nd           | Website:  www.openfoam.com                      |
|    \\/     M anipulation  |                                                 |
\*---------------------------------------------------------------------------*/
FoamFile
{
    version     2.0;
    format      ascii;
    arch        "LSB;label=32;scalar=64";
    class       volScalarField;
    location    "420";
    object      p;
}
// * * * * * * * * * * * * * * * * * * * * * * * * * * * * * * * * * * * * * //

dimensions      [0 2 -2 0 0 0 0];

internalField   nonuniform List<scalar> 
100000
(
-7.00406e-10
-1.15113e-08
-1.48672e-08
-1.05841e-08
-5.39527e-09
3.66491e-09
8.01755e-09
2.15508e-08
3.33101e-08
5.2287e-08
6.9456e-08
8.64136e-08
1.08571e-07
1.31346e-07
1.59138e-07
1.87124e-07
2.12689e-07
2.45604e-07
2.76828e-07
3.15479e-07
3.51567e-07
3.88293e-07
4.28865e-07
4.71744e-07
5.17435e-07
5.6646e-07
6.16725e-07
6.63843e-07
7.18638e-07
7.71729e-07
8.31878e-07
8.90162e-07
9.47869e-07
1.01113e-06
1.07442e-06
1.14333e-06
1.21156e-06
1.27823e-06
1.35126e-06
1.42365e-06
1.50222e-06
1.57961e-06
1.65587e-06
1.73814e-06
1.82004e-06
1.90789e-06
1.99476e-06
2.08032e-06
2.17205e-06
2.26327e-06
2.36058e-06
2.45675e-06
2.55177e-06
2.65281e-06
2.75348e-06
2.86008e-06
2.96573e-06
3.07001e-06
3.18055e-06
3.29045e-06
3.4066e-06
3.52141e-06
3.63532e-06
3.75493e-06
3.87457e-06
3.99966e-06
4.12435e-06
4.24702e-06
4.37675e-06
4.50485e-06
4.64039e-06
4.77316e-06
4.90674e-06
5.04399e-06
5.18368e-06
5.326e-06
5.4718e-06
5.61864e-06
5.76249e-06
5.91391e-06
6.06364e-06
6.22043e-06
6.37528e-06
6.52963e-06
6.68947e-06
6.84935e-06
7.01486e-06
7.17961e-06
7.34288e-06
7.51245e-06
7.68139e-06
7.85652e-06
8.03042e-06
8.20322e-06
8.38203e-06
8.56043e-06
8.74485e-06
8.92817e-06
9.1103e-06
9.29849e-06
9.48626e-06
9.68001e-06
9.87274e-06
1.00642e-05
1.02618e-05
1.04588e-05
1.06621e-05
1.0864e-05
1.1065e-05
1.12717e-05
1.14785e-05
1.16907e-05
1.19024e-05
1.21122e-05
1.2329e-05
1.25442e-05
1.27669e-05
1.29867e-05
1.32074e-05
1.34317e-05
1.36585e-05
1.38879e-05
1.41208e-05
1.43547e-05
1.45856e-05
1.48241e-05
1.50609e-05
1.53048e-05
1.55467e-05
1.57882e-05
1.60351e-05
1.6282e-05
1.65346e-05
1.67864e-05
1.70368e-05
1.72934e-05
1.75494e-05
1.78116e-05
1.80726e-05
1.83325e-05
1.85983e-05
1.88638e-05
1.91353e-05
1.94057e-05
1.96748e-05
1.99501e-05
2.02249e-05
2.05058e-05
2.07855e-05
2.10641e-05
2.13487e-05
2.16329e-05
2.1923e-05
2.22122e-05
2.25e-05
2.27941e-05
2.30875e-05
2.33872e-05
2.36855e-05
2.3983e-05
2.42861e-05
2.45893e-05
2.48979e-05
2.52061e-05
2.55122e-05
2.58255e-05
2.61371e-05
2.64562e-05
2.67724e-05
2.70895e-05
2.74102e-05
2.77334e-05
2.80592e-05
2.83886e-05
2.87189e-05
2.90462e-05
2.93811e-05
2.97143e-05
3.00546e-05
3.03929e-05
3.07308e-05
3.10741e-05
3.14175e-05
3.17665e-05
3.21147e-05
3.24614e-05
3.28145e-05
3.31669e-05
3.35255e-05
3.38829e-05
3.42391e-05
3.46014e-05
3.49633e-05
3.53312e-05
3.5698e-05
3.60636e-05
3.64352e-05
3.68065e-05
3.71837e-05
3.75599e-05
3.79348e-05
3.83159e-05
3.86963e-05
3.90831e-05
3.94684e-05
3.98529e-05
4.02431e-05
4.06333e-05
4.10289e-05
4.14242e-05
4.18174e-05
4.22177e-05
4.26163e-05
4.30224e-05
4.34257e-05
4.38298e-05
4.42376e-05
4.46479e-05
4.50607e-05
4.54771e-05
4.58944e-05
4.63088e-05
4.67307e-05
4.7151e-05
4.75783e-05
4.80037e-05
4.84286e-05
4.88589e-05
4.92893e-05
4.97254e-05
5.01606e-05
5.05944e-05
5.10345e-05
5.14739e-05
5.19196e-05
5.2364e-05
5.28073e-05
5.32566e-05
5.37055e-05
5.41605e-05
5.46143e-05
5.50669e-05
5.55256e-05
5.59839e-05
5.64482e-05
5.69113e-05
5.73733e-05
5.78414e-05
5.8309e-05
5.87826e-05
5.92552e-05
5.97265e-05
6.0204e-05
6.06809e-05
6.1164e-05
6.16457e-05
6.21266e-05
6.26132e-05
6.30998e-05
6.35918e-05
6.40834e-05
6.45731e-05
6.50697e-05
6.55648e-05
6.60673e-05
6.65669e-05
6.70675e-05
6.75716e-05
6.80783e-05
6.85875e-05
6.91003e-05
6.9614e-05
7.01248e-05
7.06431e-05
7.11598e-05
7.16835e-05
7.22053e-05
7.27265e-05
7.32533e-05
7.37801e-05
7.43125e-05
7.48441e-05
7.53743e-05
7.59108e-05
7.64467e-05
7.69887e-05
7.75295e-05
7.80692e-05
7.86149e-05
7.91602e-05
7.97115e-05
8.02617e-05
8.08108e-05
8.13658e-05
8.19205e-05
8.24812e-05
8.30408e-05
8.35991e-05
8.41636e-05
8.47275e-05
8.52977e-05
8.58665e-05
8.64344e-05
8.7008e-05
8.75816e-05
8.81607e-05
8.87393e-05
8.9316e-05
8.98997e-05
9.04818e-05
9.10713e-05
9.1658e-05
9.22456e-05
9.28368e-05
9.34305e-05
9.40267e-05
9.46265e-05
9.52273e-05
9.58251e-05
9.64304e-05
9.70341e-05
9.76449e-05
9.82537e-05
9.8862e-05
9.94758e-05
0.00010009
0.000100709
0.000101328
0.000101945
0.000102568
0.000103191
0.00010382
0.000104448
0.000105075
0.000105708
0.00010634
0.000106978
0.000107616
0.000108252
0.000108894
0.000109535
0.000110183
0.00011083
0.000111475
0.000112127
0.000112778
0.000113435
0.000114091
0.000114745
0.000115406
0.000116067
0.000116733
0.000117398
0.000118063
0.000118733
0.000119403
0.000120078
0.000120753
0.000121426
0.000122106
0.000122785
0.000123471
0.000124154
0.000124838
0.000125525
0.000126215
0.000126908
0.000127604
0.000128301
0.000128996
0.000129697
0.000130397
0.000131105
0.00013181
0.000132514
0.000133225
0.000133935
0.000134651
0.000135366
0.000136079
0.000136799
0.000137519
0.000138244
0.000138968
0.000139691
0.00014042
0.000141149
0.000141884
0.000142618
0.00014335
0.000144088
0.000144827
0.000145571
0.000146314
0.000147055
0.000147803
0.000148551
0.000149304
0.000150056
0.000150808
0.000151565
0.000152322
0.000153084
0.000153846
0.000154606
0.000155374
0.000156139
0.000156912
0.000157682
0.000158453
0.000159228
0.000160005
0.000160785
0.000161568
0.000162352
0.000163133
0.000163922
0.000164709
0.000165503
0.000166295
0.000167087
0.000167884
0.000168682
0.000169484
0.000170287
0.000171087
0.000171894
0.0001727
0.000173513
0.000174324
0.000175134
0.00017595
0.000176766
0.000177588
0.000178409
0.000179228
0.000180054
0.000180879
0.00018171
0.00018254
0.000183369
0.000184204
0.000185038
0.000185879
0.000186718
0.000187556
0.0001884
0.000189244
0.000190094
0.000190943
0.00019179
0.000192644
0.000193497
0.000194356
0.000195215
0.000196071
0.000196935
0.000197796
0.000198666
0.000199532
0.0002004
0.000201271
0.000202144
0.00020302
0.0002039
0.00020478
0.000205658
0.000206543
0.000207427
0.000208317
0.000209206
0.000210094
0.000210987
0.000211881
0.00021278
0.000213679
0.000214576
0.000215479
0.000216382
0.000217291
0.000218198
0.000219105
0.000220017
0.00022093
0.000221848
0.000222765
0.000223681
0.000224603
0.000225524
0.000226452
0.000227378
0.000228303
0.000229234
0.000230165
0.000231102
0.000232038
0.000232973
0.000233913
0.000234853
0.000235799
0.000236745
0.000237688
0.000238639
0.000239588
0.000240544
0.000241498
0.000242452
0.00024341
0.000244371
0.000245334
0.0002463
0.000247268
0.000248233
0.000249205
0.000250175
0.000251153
0.000252128
0.000253104
0.000254084
0.000255065
0.000256051
0.000257037
0.000258021
0.000259011
0.000260001
0.000260997
0.000261991
0.000262985
0.000263984
0.000264984
0.000265989
0.000266993
0.000267996
0.000269005
0.000270013
0.000271028
0.000272041
0.000273054
0.000274072
0.00027509
0.000276114
0.000277136
0.000278158
0.000279186
0.000280213
0.000281246
0.000282278
0.000283309
0.000284346
0.000285383
0.000286425
0.000287467
0.000288507
0.000289554
0.000290599
0.000291652
0.000292702
0.000293753
0.000294807
0.000295864
0.000296923
0.000297986
0.00029905
0.000300111
0.00030118
0.000302247
0.000303321
0.000304393
0.000305464
0.000306541
0.000307618
0.000308701
0.000309783
0.000310863
0.00031195
0.000313036
0.000314129
0.00031522
0.00031631
0.000317406
0.000318501
0.000319603
0.000320703
0.000321802
0.000322908
0.000324013
0.000325124
0.000326233
0.000327342
0.000328457
0.000329571
0.000330691
0.00033181
0.000332928
0.000334052
0.000335176
0.000336306
0.000337434
0.000338561
0.000339695
0.000340828
0.000341967
0.000343104
0.000344242
0.000345384
0.000346528
0.000347674
0.000348824
0.000349975
0.000351123
0.000352279
0.000353433
0.000354594
0.000355753
0.000356911
0.000358075
0.000359239
0.000360409
0.000361578
0.000362745
0.000363919
0.000365092
0.000366272
0.00036745
0.000368627
0.00036981
0.000370992
0.000372181
0.000373368
0.000374555
0.000375747
0.000376939
0.000378137
0.000379334
0.000380529
0.000381731
0.000382932
0.00038414
0.000385346
0.000386551
0.000387762
0.000388972
0.000390189
0.000391405
0.000392619
0.000393839
0.00039506
0.000396285
0.000397511
0.000398734
0.000399964
0.000401193
0.000402429
0.000403663
0.000404897
0.000406135
0.000407375
0.000408618
0.000409864
0.000411112
0.000412356
0.000413608
0.000414858
0.000416116
0.000417371
0.000418626
0.000419886
0.000421147
0.000422413
0.000423678
0.000424942
0.000426212
0.000427482
0.000428758
0.000430032
0.000431305
0.000432585
0.000433864
0.000435149
0.000436432
0.000437715
0.000439004
0.000440292
0.000441587
0.00044288
0.000444172
0.00044547
0.000446768
0.000448071
0.000449374
0.000450675
0.000451983
0.00045329
0.000454603
0.000455915
0.000457225
0.000458543
0.000459858
0.000461182
0.000462502
0.000463823
0.000465148
0.000466475
0.000467805
0.000469139
0.000470473
0.000471805
0.000473144
0.000474481
0.000475825
0.000477168
0.00047851
0.000479857
0.000481205
0.000482558
0.00048391
0.000485261
0.000486618
0.000487975
0.000489337
0.000490699
0.000492059
0.000493426
0.000494792
0.000496164
0.000497535
0.000498904
0.00050028
0.000501655
0.000503037
0.000504417
0.000505796
0.000507181
0.000508566
0.000509957
0.000511346
0.000512735
0.000514129
0.000515523
0.000516923
0.000518322
0.00051972
0.000521124
0.000522527
0.000523937
0.000525345
0.000526752
0.000528166
0.000529578
0.000530997
0.000532414
0.000533832
0.000535253
0.000536677
0.000538103
0.000539533
0.000540964
0.000542392
0.000543827
0.000545261
0.000546701
0.00054814
0.000549579
0.000551022
0.000552466
0.000553916
0.000555364
0.000556812
0.000558265
0.000559718
0.000561177
0.000562635
0.000564092
0.000565555
0.000567017
0.000568486
0.000569953
0.000571419
0.000572891
0.000574363
0.000575841
0.000577317
0.000578793
0.000580274
0.000581755
0.000583242
0.000584728
0.000586213
0.000587704
0.000589195
0.000590691
0.000592186
0.00059368
0.000595181
0.00059668
0.000598187
0.00059969
0.000601195
0.000602703
0.000604214
0.000605727
0.000607244
0.000608762
0.000610277
0.000611799
0.00061332
0.000614848
0.000616374
0.000617899
0.00061943
0.000620961
0.000622497
0.000624033
0.000625568
0.000627108
0.000628648
0.000630194
0.000631739
0.000633283
0.000634833
0.000636382
0.000637937
0.000639492
0.000641045
0.000642604
0.000644163
0.000645728
0.000647291
0.000648854
0.000650422
0.00065199
0.000653565
0.000655138
0.000656709
0.000658287
0.000659865
0.000661448
0.000663031
0.000664612
0.000666199
0.000667786
0.000669379
0.000670971
0.000672561
0.000674158
0.000675753
0.000677356
0.000678957
0.000680558
0.000682162
0.000683769
0.000685379
0.000686992
0.000688607
0.000690218
0.000691837
0.000693454
0.000695078
0.0006967
0.000698322
0.000699949
0.000701576
0.000703209
0.000704842
0.000706472
0.000708109
0.000709745
0.000711388
0.000713029
0.000714669
0.000716316
0.000717961
0.000719613
0.000721264
0.000722913
0.000724569
0.000726224
0.000727885
0.000729545
0.000731204
0.000732869
0.000734534
0.000736204
0.000737873
0.000739542
0.000741216
0.00074289
0.00074457
0.000746249
0.000747926
0.00074961
0.000751293
0.000752983
0.00075467
0.000756358
0.00075805
0.000759744
0.00076144
0.000763141
0.000764842
0.00076654
0.000768246
0.00076995
0.000771661
0.000773371
0.00077508
0.000776794
0.000778508
0.000780228
0.000781947
0.000783665
0.000785389
0.000787112
0.000788842
0.00079057
0.000792297
0.00079403
0.000795763
0.000797502
0.00079924
0.000800976
0.000802719
0.000804461
0.000806209
0.000807956
0.000809702
0.000811454
0.000813206
0.000814963
0.00081672
0.000818475
0.000820236
0.000821997
0.000823764
0.00082553
0.000827295
0.000829065
0.000830835
0.000832611
0.000834387
0.00083616
0.000837941
0.00083972
0.000841506
0.00084329
0.000845074
0.000846862
0.000848653
0.000850446
0.000852243
0.00085404
0.000855835
0.000857637
0.000859438
0.000861245
0.000863051
0.000864856
0.000866667
0.000868478
0.000870294
0.000872109
0.000873923
0.000875744
0.000877564
0.00087939
0.000881214
0.000883038
0.000884867
0.000886697
0.000888532
0.000890366
0.000892199
0.000894038
0.000895876
0.000897721
0.000899564
0.000901407
0.000903255
0.000905103
0.000906957
0.00090881
0.000910661
0.000912519
0.000914376
0.000916239
0.000918102
0.000919962
0.00092183
0.000923696
0.000925569
0.00092744
0.000929311
0.000931187
0.000933064
0.000934944
0.000936828
0.000938713
0.000940594
0.000942484
0.000944371
0.000946266
0.000948158
0.000950051
0.000951948
0.000953846
0.000955749
0.000957652
0.000959553
0.00096146
0.000963367
0.00096528
0.000967192
0.000969102
0.000971019
0.000972935
0.000974858
0.000976779
0.000978699
0.000980625
0.00098255
0.000984482
0.000986412
0.000988342
0.000990277
0.000992212
0.000994153
0.000996093
0.000998031
0.000999976
0.00100192
0.00100387
0.00100582
0.00100777
0.00100972
0.00101168
0.00101364
0.00101559
0.00101755
0.00101951
0.00102148
0.00102345
0.00102541
0.00102738
0.00102935
0.00103133
0.0010333
0.00103528
0.00103726
0.00103924
0.00104123
0.00104321
0.0010452
0.00104719
0.00104918
0.00105118
0.00105317
0.00105517
0.00105717
0.00105917
0.00106117
0.00106317
0.00106518
0.00106719
0.0010692
0.00107121
0.00107322
0.00107524
0.00107726
0.00107928
0.0010813
0.00108332
0.00108535
0.00108737
0.0010894
0.00109143
0.00109346
0.0010955
0.00109754
0.00109957
0.00110161
0.00110365
0.0011057
0.00110775
0.00110979
0.00111184
0.00111389
0.00111595
0.001118
0.00112006
0.00112211
0.00112418
0.00112624
0.00112831
0.00113037
0.00113244
0.00113451
0.00113658
0.00113866
0.00114074
0.00114281
0.00114489
0.00114697
0.00114906
0.00115115
0.00115323
0.00115532
0.00115741
0.00115951
0.0011616
0.0011637
0.0011658
0.0011679
0.00117
0.00117211
0.00117421
0.00117632
0.00117843
0.00118055
0.00118266
0.00118477
0.00118689
0.00118901
0.00119113
0.00119326
0.00119538
0.00119751
0.00119963
0.00120177
0.0012039
0.00120603
0.00120817
0.00121031
0.00121245
0.00121459
0.00121673
0.00121888
0.00122103
0.00122318
0.00122533
0.00122748
0.00122963
0.00123179
0.00123395
0.00123612
0.00123828
0.00124044
0.00124261
0.00124478
0.00124695
0.00124913
0.0012513
0.00125347
0.00125565
0.00125784
0.00126002
0.0012622
0.00126439
0.00126657
0.00126876
0.00127096
0.00127315
0.00127534
0.00127754
0.00127974
0.00128194
0.00128414
0.00128635
0.00128855
0.00129076
0.00129297
0.00129518
0.0012974
0.00129961
0.00130183
0.00130405
0.00130627
0.0013085
0.00131072
0.00131295
0.00131518
0.00131741
0.00131964
0.00132188
0.00132412
0.00132635
0.00132859
0.00133083
0.00133308
0.00133532
0.00133757
0.00133983
0.00134207
0.00134433
0.00134659
0.00134885
0.00135111
0.00135337
0.00135563
0.00135789
0.00136016
0.00136243
0.0013647
0.00136698
0.00136925
0.00137153
0.00137381
0.00137609
0.00137837
0.00138065
0.00138294
0.00138523
0.00138752
0.00138981
0.0013921
0.0013944
0.0013967
0.00139899
0.00140129
0.0014036
0.0014059
0.00140821
0.00141052
0.00141283
0.00141514
0.00141746
0.00141977
0.00142209
0.00142441
0.00142673
0.00142905
0.00143138
0.0014337
0.00143603
0.00143836
0.0014407
0.00144303
0.00144537
0.00144771
0.00145005
0.00145239
0.00145474
0.00145709
0.00145943
0.00146178
0.00146413
0.00146649
0.00146885
0.0014712
0.00147356
0.00147593
0.00147829
0.00148066
0.00148302
0.00148539
0.00148776
0.00149014
0.00149251
0.00149489
0.00149727
0.00149965
0.00150203
0.00150442
0.0015068
0.00150919
0.00151158
0.00151397
0.00151637
0.00151876
0.00152116
0.00152356
0.00152596
0.00152836
0.00153076
0.00153317
0.00153558
0.00153799
0.00154041
0.00154282
0.00154523
0.00154765
0.00155007
0.0015525
0.00155492
0.00155734
0.00155977
0.0015622
0.00156463
0.00156707
0.0015695
0.00157194
0.00157438
0.00157682
0.00157927
0.00158171
0.00158416
0.0015866
0.00158906
0.00159151
0.00159396
0.00159642
0.00159888
0.00160134
0.0016038
0.00160626
0.00160873
0.0016112
0.00161367
0.00161614
0.00161861
0.00162109
0.00162356
0.00162604
0.00162852
0.001631
0.00163349
0.00163597
0.00163847
0.00164096
0.00164344
0.00164594
0.00164843
0.00165094
0.00165343
0.00165593
0.00165844
0.00166094
0.00166345
0.00166596
0.00166847
0.00167098
0.00167349
0.00167601
0.00167853
0.00168105
0.00168357
0.00168609
0.00168862
0.00169115
0.00169368
0.00169621
0.00169875
0.00170128
0.00170382
0.00170636
0.0017089
0.00171145
0.00171399
0.00171654
0.00171909
0.00172164
0.00172419
0.00172674
0.0017293
0.00173186
0.00173442
0.00173698
0.00173954
0.00174211
0.00174468
0.00174725
0.00174982
0.00175239
0.00175497
0.00175755
0.00176012
0.00176271
0.00176529
0.00176788
0.00177046
0.00177305
0.00177564
0.00177823
0.00178083
0.00178342
0.00178602
0.00178862
0.00179122
0.00179382
0.00179643
0.00179903
0.00180164
0.00180425
0.00180687
0.00180948
0.0018121
0.00181472
0.00181734
0.00181996
0.00182259
0.00182522
0.00182784
0.00183047
0.00183311
0.00183574
0.00183838
0.00184101
0.00184365
0.00184629
0.00184894
0.00185159
0.00185423
0.00185688
0.00185953
0.00186219
0.00186484
0.0018675
0.00187015
0.00187281
0.00187548
0.00187814
0.00188081
0.00188348
0.00188614
0.00188882
0.00189149
0.00189416
0.00189684
0.00189952
0.0019022
0.00190489
0.00190757
0.00191026
0.00191294
0.00191564
0.00191833
0.00192102
0.00192372
0.00192641
0.00192912
0.00193182
0.00193452
0.00193722
0.00193993
0.00194264
0.00194536
0.00194807
0.00195078
0.0019535
0.00195622
0.00195894
0.00196167
0.00196439
0.00196712
0.00196984
0.00197258
0.00197531
0.00197804
0.00198078
0.00198352
0.00198626
0.001989
0.00199174
0.00199449
0.00199723
0.00199999
0.00200274
0.00200549
0.00200824
0.002011
0.00201376
0.00201652
0.00201928
0.00202205
0.00202481
0.00202758
0.00203035
0.00203312
0.00203589
0.00203867
0.00204145
0.00204423
0.00204701
0.00204979
0.00205257
0.00205536
0.00205815
0.00206094
0.00206373
0.00206653
0.00206932
0.00207213
0.00207493
0.00207773
0.00208053
0.00208334
0.00208615
0.00208896
0.00209177
0.00209458
0.0020974
0.00210022
0.00210304
0.00210586
0.00210868
0.0021115
0.00211433
0.00211716
0.00211999
0.00212282
0.00212566
0.0021285
0.00213133
0.00213417
0.00213701
0.00213986
0.00214271
0.00214555
0.0021484
0.00215125
0.0021541
0.00215696
0.00215982
0.00216267
0.00216554
0.0021684
0.00217127
0.00217413
0.002177
0.00217987
0.00218274
0.00218561
0.00218849
0.00219136
0.00219425
0.00219712
0.00220001
0.0022029
0.00220578
0.00220867
0.00221156
0.00221445
0.00221735
0.00222025
0.00222314
0.00222605
0.00222895
0.00223186
0.00223476
0.00223767
0.00224058
0.00224349
0.00224641
0.00224932
0.00225224
0.00225516
0.00225808
0.002261
0.00226393
0.00226685
0.00226978
0.00227271
0.00227565
0.00227858
0.00228152
0.00228446
0.0022874
0.00229034
0.00229328
0.00229623
0.00229918
0.00230212
0.00230508
0.00230803
0.00231098
0.00231394
0.0023169
0.00231986
0.00232283
0.00232579
0.00232876
0.00233172
0.0023347
0.00233767
0.00234064
0.00234362
0.00234659
0.00234957
0.00235255
0.00235554
0.00235852
0.00236151
0.0023645
0.00236749
0.00237049
0.00237348
0.00237648
0.00237947
0.00238248
0.00238548
0.00238848
0.00239149
0.0023945
0.00239751
0.00240052
0.00240353
0.00240655
0.00240957
0.00241259
0.00241561
0.00241863
0.00242166
0.00242469
0.00242772
0.00243075
0.00243378
0.00243681
0.00243985
0.00244289
0.00244593
0.00244897
0.00245202
0.00245506
0.00245811
0.00246116
0.00246421
0.00246726
0.00247032
0.00247338
0.00247644
0.00247949
0.00248256
0.00248562
0.00248869
0.00249176
0.00249483
0.0024979
0.00250097
0.00250405
0.00250713
0.00251021
0.00251329
0.00251638
0.00251946
0.00252255
0.00252564
0.00252873
0.00253183
0.00253492
0.00253802
0.00254112
0.00254422
0.00254732
0.00255043
0.00255354
0.00255665
0.00255975
0.00256287
0.00256598
0.0025691
0.00257222
0.00257533
0.00257846
0.00258158
0.00258471
0.00258783
0.00259096
0.00259409
0.00259722
0.00260036
0.0026035
0.00260663
0.00260978
0.00261292
0.00261606
0.00261921
0.00262235
0.00262551
0.00262866
0.00263181
0.00263497
0.00263812
0.00264128
0.00264444
0.00264761
0.00265077
0.00265394
0.00265711
0.00266028
0.00266345
0.00266663
0.0026698
0.00267298
0.00267616
0.00267934
0.00268253
0.00268572
0.0026889
0.00269209
0.00269528
0.00269848
0.00270168
0.00270487
0.00270807
0.00271127
0.00271448
0.00271768
0.00272089
0.0027241
0.00272731
0.00273052
0.00273374
0.00273695
0.00274017
0.00274339
0.00274661
0.00274983
0.00275306
0.00275629
0.00275951
0.00276275
0.00276598
0.00276921
0.00277245
0.00277569
0.00277893
0.00278217
0.00278542
0.00278866
0.00279191
0.00279516
0.00279841
0.00280167
0.00280492
0.00280818
0.00281144
0.0028147
0.00281797
0.00282123
0.0028245
0.00282777
0.00283104
0.00283432
0.00283759
0.00284087
0.00284414
0.00284743
0.00285071
0.00285399
0.00285728
0.00286057
0.00286386
0.00286715
0.00287044
0.00287374
0.00287704
0.00288034
0.00288364
0.00288694
0.00289025
0.00289355
0.00289686
0.00290017
0.00290348
0.0029068
0.00291011
0.00291344
0.00291676
0.00292007
0.0029234
0.00292672
0.00293006
0.00293338
0.00293671
0.00294005
0.00294338
0.00294672
0.00295006
0.0029534
0.00295674
0.00296008
0.00296343
0.00296678
0.00297013
0.00297348
0.00297684
0.00298019
0.00298355
0.00298691
0.00299027
0.00299364
0.002997
0.00300037
0.00300374
0.00300711
0.00301049
0.00301386
0.00301724
0.00302062
0.003024
0.00302738
0.00303076
0.00303415
0.00303754
0.00304093
0.00304432
0.00304772
0.00305111
0.00305451
0.00305791
0.00306131
0.00306471
0.00306812
0.00307153
0.00307493
0.00307835
0.00308176
0.00308518
0.00308859
0.00309201
0.00309543
0.00309885
0.00310228
0.0031057
0.00310913
0.00311256
0.00311599
0.00311943
0.00312286
0.00312629
0.00312973
0.00313317
0.00313662
0.00314007
0.00314351
0.00314696
0.00315041
0.00315386
0.00315732
0.00316078
0.00316423
0.0031677
0.00317116
0.00317462
0.00317809
0.00318155
0.00318503
0.0031885
0.00319197
0.00319545
0.00319892
0.0032024
0.00320588
0.00320937
0.00321285
0.00321634
0.00321983
0.00322332
0.00322681
0.00323031
0.0032338
0.0032373
0.0032408
0.0032443
0.0032478
0.00325131
0.00325481
0.00325832
0.00326184
0.00326535
0.00326886
0.00327238
0.0032759
0.00327942
0.00328294
0.00328646
0.00328999
0.00329352
0.00329705
0.00330058
0.00330411
0.00330765
0.00331118
0.00331472
0.00331827
0.00332181
0.00332535
0.0033289
0.00333245
0.00333601
0.00333956
0.00334311
0.00334667
0.00335023
0.00335379
0.00335735
0.00336091
0.00336448
0.00336805
0.00337162
0.00337519
0.00337876
0.00338234
0.00338592
0.0033895
0.00339308
0.00339666
0.00340025
0.00340383
0.00340742
0.00341101
0.0034146
0.0034182
0.00342179
0.00342539
0.00342899
0.00343259
0.0034362
0.0034398
0.00344341
0.00344702
0.00345063
0.00345424
0.00345786
0.00346148
0.0034651
0.00346871
0.00347234
0.00347596
0.00347959
0.00348322
0.00348685
0.00349048
0.00349412
0.00349775
0.00350139
0.00350503
0.00350867
0.00351232
0.00351596
0.00351961
0.00352326
0.00352691
0.00353056
0.00353422
0.00353788
0.00354154
0.00354519
0.00354886
0.00355252
0.00355619
0.00355986
0.00356353
0.0035672
0.00357087
0.00357455
0.00357823
0.0035819
0.00358559
0.00358927
0.00359296
0.00359664
0.00360033
0.00360402
0.00360771
0.00361141
0.00361511
0.0036188
0.0036225
0.0036262
0.00362991
0.00363361
0.00363732
0.00364103
0.00364474
0.00364846
0.00365217
0.00365589
0.0036596
0.00366332
0.00366705
0.00367078
0.0036745
0.00367823
0.00368196
0.00368569
0.00368943
0.00369317
0.0036969
0.00370064
0.00370438
0.00370813
0.00371188
0.00371562
0.00371937
0.00372312
0.00372688
0.00373063
0.00373439
0.00373815
0.00374191
0.00374567
0.00374944
0.0037532
0.00375697
0.00376074
0.00376452
0.00376829
0.00377206
0.00377584
0.00377962
0.0037834
0.00378719
0.00379097
0.00379476
0.00379855
0.00380234
0.00380613
0.00380992
0.00381372
0.00381752
0.00382132
0.00382512
0.00382892
0.00383273
0.00383654
0.00384035
0.00384416
0.00384798
0.00385179
0.00385561
0.00385943
0.00386325
0.00386708
0.0038709
0.00387473
0.00387855
0.00388239
0.00388622
0.00389005
0.00389389
0.00389773
0.00390157
0.00390541
0.00390926
0.0039131
0.00391695
0.0039208
0.00392465
0.0039285
0.00393236
0.00393622
0.00394008
0.00394394
0.0039478
0.00395166
0.00395553
0.0039594
0.00396327
0.00396714
0.00397102
0.00397489
0.00397877
0.00398265
0.00398653
0.00399041
0.0039943
0.00399819
0.00400208
0.00400597
0.00400986
0.00401375
0.00401765
0.00402155
0.00402545
0.00402935
0.00403326
0.00403716
0.00404107
0.00404498
0.00404889
0.00405281
0.00405672
0.00406065
0.00406456
0.00406848
0.00407241
0.00407633
0.00408026
0.00408419
0.00408812
0.00409205
0.00409599
0.00409993
0.00410387
0.0041078
0.00411175
0.00411569
0.00411964
0.00412359
0.00412753
0.00413149
0.00413544
0.0041394
0.00414336
0.00414731
0.00415127
0.00415524
0.0041592
0.00416317
0.00416714
0.00417111
0.00417508
0.00417906
0.00418303
0.00418701
0.00419099
0.00419497
0.00419896
0.00420294
0.00420692
0.00421091
0.00421491
0.0042189
0.0042229
0.0042269
0.00423089
0.00423489
0.0042389
0.0042429
0.00424691
0.00425092
0.00425493
0.00425894
0.00426296
0.00426697
0.00427099
0.00427501
0.00427903
0.00428306
0.00428708
0.00429111
0.00429514
0.00429917
0.0043032
0.00430724
0.00431127
0.00431531
0.00431935
0.0043234
0.00432744
0.00433149
0.00433553
0.00433958
0.00434364
0.00434769
0.00435174
0.0043558
0.00435986
0.00436393
0.00436799
0.00437205
0.00437612
0.00438019
0.00438426
0.00438833
0.0043924
0.00439648
0.00440056
0.00440464
0.00440872
0.0044128
0.00441689
0.00442098
0.00442507
0.00442916
0.00443326
0.00443735
0.00444145
0.00444555
0.00444965
0.00445375
0.00445786
0.00446196
0.00446607
0.00447019
0.0044743
0.00447841
0.00448253
0.00448664
0.00449077
0.00449489
0.00449901
0.00450314
0.00450726
0.0045114
0.00451553
0.00451966
0.00452379
0.00452793
0.00453207
0.00453621
0.00454035
0.0045445
0.00454864
0.00455279
0.00455694
0.00456109
0.00456525
0.0045694
0.00457356
0.00457772
0.00458188
0.00458605
0.00459021
0.00459438
0.00459855
0.00460272
0.00460689
0.00461106
0.00461524
0.00461942
0.0046236
0.00462778
0.00463197
0.00463615
0.00464035
0.00464454
0.00464873
0.00465292
0.00465712
0.00466132
0.00466552
0.00466971
0.00467392
0.00467812
0.00468233
0.00468654
0.00469075
0.00469496
0.00469918
0.0047034
0.00470762
0.00471183
0.00471606
0.00472028
0.00472451
0.00472874
0.00473296
0.0047372
0.00474143
0.00474567
0.0047499
0.00475414
0.00475838
0.00476262
0.00476687
0.00477112
0.00477536
0.00477961
0.00478386
0.00478812
0.00479238
0.00479663
0.00480089
0.00480515
0.00480942
0.00481368
0.00481795
0.00482222
0.00482649
0.00483076
0.00483504
0.00483932
0.00484359
0.00484788
0.00485216
0.00485645
0.00486073
0.00486502
0.00486931
0.0048736
0.0048779
0.00488219
0.00488649
0.00489079
0.00489509
0.0048994
0.0049037
0.00490801
0.00491232
0.00491663
0.00492094
0.00492526
0.00492957
0.00493389
0.00493821
0.00494254
0.00494686
0.00495118
0.00495551
0.00495984
0.00496418
0.00496851
0.00497284
0.00497718
0.00498152
0.00498586
0.0049902
0.00499455
0.00499889
0.00500324
0.0050076
0.00501195
0.0050163
0.00502065
0.00502501
0.00502937
0.00503374
0.0050381
0.00504247
0.00504684
0.0050512
0.00505558
0.00505995
0.00506433
0.0050687
0.00507308
0.00507747
0.00508185
0.00508623
0.00509062
0.00509501
0.0050994
0.00510379
0.00510818
0.00511258
0.00511698
0.00512138
0.00512578
0.00513018
0.00513459
0.005139
0.00514341
0.00514782
0.00515223
0.00515665
0.00516106
0.00516548
0.0051699
0.00517432
0.00517875
0.00518317
0.00518761
0.00519204
0.00519646
0.0052009
0.00520533
0.00520977
0.00521421
0.00521865
0.0052231
0.00522754
0.00523199
0.00523644
0.00524089
0.00524534
0.00524979
0.00525425
0.00525871
0.00526317
0.00526763
0.0052721
0.00527656
0.00528103
0.0052855
0.00528997
0.00529445
0.00529892
0.0053034
0.00530788
0.00531236
0.00531684
0.00532133
0.00532582
0.00533031
0.00533479
0.00533929
0.00534378
0.00534828
0.00535278
0.00535728
0.00536178
0.00536628
0.00537079
0.0053753
0.0053798
0.00538432
0.00538883
0.00539335
0.00539786
0.00540238
0.0054069
0.00541142
0.00541595
0.00542048
0.005425
0.00542953
0.00543406
0.0054386
0.00544314
0.00544767
0.00545221
0.00545675
0.0054613
0.00546584
0.00547039
0.00547494
0.00547949
0.00548404
0.0054886
0.00549316
0.00549772
0.00550228
0.00550684
0.00551141
0.00551597
0.00552054
0.00552511
0.00552968
0.00553426
0.00553883
0.00554341
0.00554799
0.00555257
0.00555716
0.00556174
0.00556633
0.00557092
0.00557551
0.0055801
0.0055847
0.00558929
0.00559389
0.00559849
0.00560309
0.0056077
0.0056123
0.00561691
0.00562152
0.00562613
0.00563074
0.00563536
0.00563997
0.00564459
0.00564922
0.00565384
0.00565846
0.00566309
0.00566771
0.00567235
0.00567698
0.00568161
0.00568625
0.00569089
0.00569553
0.00570017
0.00570482
0.00570946
0.00571411
0.00571876
0.00572341
0.00572806
0.00573272
0.00573737
0.00574203
0.0057467
0.00575136
0.00575602
0.00576069
0.00576536
0.00577003
0.0057747
0.00577937
0.00578405
0.00578873
0.00579341
0.00579809
0.00580277
0.00580746
0.00581214
0.00581684
0.00582153
0.00582622
0.00583091
0.00583561
0.00584031
0.00584501
0.00584971
0.00585441
0.00585912
0.00586383
0.00586854
0.00587325
0.00587796
0.00588268
0.0058874
0.00589212
0.00589684
0.00590156
0.00590628
0.00591101
0.00591574
0.00592047
0.0059252
0.00592994
0.00593467
0.00593942
0.00594416
0.0059489
0.00595364
0.00595839
0.00596314
0.00596789
0.00597264
0.00597739
0.00598215
0.00598691
0.00599167
0.00599642
0.00600119
0.00600595
0.00601072
0.00601549
0.00602026
0.00602503
0.0060298
0.00603458
0.00603936
0.00604414
0.00604892
0.0060537
0.00605849
0.00606328
0.00606807
0.00607286
0.00607765
0.00608245
0.00608724
0.00609204
0.00609684
0.00610164
0.00610645
0.00611126
0.00611606
0.00612087
0.00612568
0.0061305
0.00613532
0.00614014
0.00614495
0.00614978
0.0061546
0.00615943
0.00616425
0.00616908
0.00617391
0.00617875
0.00618358
0.00618842
0.00619326
0.0061981
0.00620294
0.00620779
0.00621263
0.00621748
0.00622233
0.00622718
0.00623204
0.00623689
0.00624175
0.00624661
0.00625147
0.00625633
0.0062612
0.00626606
0.00627093
0.0062758