/*--------------------------------*- C++ -*----------------------------------*\
| =========                 |                                                 |
| \\      /  F ield         | OpenFOAM: The Open Source CFD Toolbox           |
|  \\    /   O peration     | Version:  2206                                  |
|   \\  /    A nd           | Website:  www.openfoam.com                      |
|    \\/     M anipulation  |                                                 |
\*---------------------------------------------------------------------------*/
FoamFile
{
    version     2.0;
    format      ascii;
    arch        "LSB;label=32;scalar=64";
    class       volVectorField;
    location    "420";
    object      U;
}
// * * * * * * * * * * * * * * * * * * * * * * * * * * * * * * * * * * * * * //

dimensions      [0 1 -1 0 0 0 0];

internalField   nonuniform List<vector> 
100000
(
(-5.01216e-12 6.47191e-06 4.76373e-13)
(-4.49888e-12 1.20774e-05 8.31503e-14)
(-8.00578e-12 2.20171e-05 1.48897e-13)
(-1.45691e-11 3.2691e-05 1.52283e-13)
(-1.79239e-11 4.23683e-05 8.83061e-14)
(-1.69656e-11 4.48526e-05 7.45298e-14)
(-2.06773e-11 5.47518e-05 1.42293e-13)
(-2.63146e-11 6.55669e-05 1.47971e-13)
(-3.13203e-11 7.63639e-05 1.49347e-13)
(-3.58858e-11 8.61274e-05 8.42341e-14)
(-3.39713e-11 8.85461e-05 7.83858e-14)
(-3.83945e-11 9.84188e-05 1.42993e-13)
(-4.36218e-11 0.000109238 1.48606e-13)
(-4.8843e-11 0.000120044 1.47798e-13)
(-5.33213e-11 0.000129831 8.34547e-14)
(-5.13538e-11 0.000132238 7.88e-14)
(-5.59814e-11 0.000142098 1.44311e-13)
(-6.08518e-11 0.000152917 1.48104e-13)
(-6.66008e-11 0.000163727 1.47742e-13)
(-7.03655e-11 0.000173525 8.23169e-14)
(-6.93093e-11 0.000175928 7.99355e-14)
(-7.27989e-11 0.000185781 1.44023e-13)
(-7.90785e-11 0.000196608 1.49706e-13)
(-8.32001e-11 0.000207513 1.51316e-13)
(-8.95067e-11 0.000218331 1.47994e-13)
(-9.30229e-11 0.000228138 8.35744e-14)
(-9.19006e-11 0.000230538 8.02133e-14)
(-9.568e-11 0.000240386 1.4643e-13)
(-1.01421e-10 0.000251204 1.4943e-13)
(-1.06315e-10 0.000262017 1.483e-13)
(-1.10993e-10 0.000271826 8.25755e-14)
(-1.08915e-10 0.000274226 8.08225e-14)
(-1.13491e-10 0.00028407 1.45946e-13)
(-1.18571e-10 0.000294889 1.49606e-13)
(-1.24008e-10 0.000305702 1.47673e-13)
(-1.28232e-10 0.000315514 8.25837e-14)
(-1.26535e-10 0.000317913 8.06637e-14)
(-1.308e-10 0.000327756 1.46091e-13)
(-1.36136e-10 0.000338574 1.4932e-13)
(-1.41359e-10 0.000349387 1.47552e-13)
(-1.45757e-10 0.000359202 8.23006e-14)
(-1.43921e-10 0.0003616 8.0785e-14)
(-1.48303e-10 0.000371441 1.45999e-13)
(-1.53542e-10 0.000382259 1.49268e-13)
(-1.5884e-10 0.000393073 1.47315e-13)
(-1.63177e-10 0.000402889 8.22008e-14)
(-1.61391e-10 0.000405287 8.07772e-14)
(-1.65737e-10 0.000415126 1.46016e-13)
(-1.71001e-10 0.000425944 1.4915e-13)
(-1.76283e-10 0.000436759 1.47195e-13)
(-1.80624e-10 0.000446576 8.20583e-14)
(-1.78845e-10 0.000448973 8.08294e-14)
(-1.83177e-10 0.000458812 1.45973e-13)
(-1.88465e-10 0.00046963 1.49111e-13)
(-1.9371e-10 0.000480444 1.47039e-13)
(-1.98098e-10 0.000490262 8.20036e-14)
(-1.96262e-10 0.00049266 8.08045e-14)
(-2.00668e-10 0.000502498 1.46013e-13)
(-2.05863e-10 0.000513315 1.48991e-13)
(-2.1122e-10 0.00052413 1.47009e-13)
(-2.15471e-10 0.000533949 8.18406e-14)
(-2.13801e-10 0.000536347 8.09219e-14)
(-2.18009e-10 0.000546183 1.45883e-13)
(-2.23443e-10 0.000557001 1.49085e-13)
(-2.28512e-10 0.000567816 1.46752e-13)
(-2.33106e-10 0.000577635 8.19795e-14)
(-2.31026e-10 0.000580033 8.06905e-14)
(-2.35728e-10 0.000589869 1.46168e-13)
(-2.40569e-10 0.000600687 1.4869e-13)
(-2.46347e-10 0.000611502 1.471e-13)
(-2.50091e-10 0.000621322 8.14181e-14)
(-2.49031e-10 0.000623719 8.13119e-14)
(-2.52513e-10 0.000633556 1.45472e-13)
(-2.58818e-10 0.00064438 1.50224e-13)
(-2.62925e-10 0.000655286 1.50734e-13)
(-2.69236e-10 0.000666108 1.46694e-13)
(-2.72731e-10 0.00067593 8.24454e-14)
(-2.71643e-10 0.000678327 8.07707e-14)
(-2.75403e-10 0.000688162 1.46724e-13)
(-2.81164e-10 0.000698979 1.49071e-13)
(-2.86031e-10 0.000709795 1.47341e-13)
(-2.90723e-10 0.000719616 8.17467e-14)
(-2.8864e-10 0.000722013 8.12921e-14)
(-2.93228e-10 0.000731848 1.46252e-13)
(-2.98299e-10 0.000742665 1.4938e-13)
(-3.03739e-10 0.000753481 1.46965e-13)
(-3.07953e-10 0.000763302 8.19455e-14)
(-3.06271e-10 0.0007657 8.10789e-14)
(-3.10525e-10 0.000775534 1.46394e-13)
(-3.15875e-10 0.000786351 1.4919e-13)
(-3.2108e-10 0.000797166 1.47015e-13)
(-3.25491e-10 0.000806989 8.18047e-14)
(-3.23644e-10 0.000809386 8.11504e-14)
(-3.28041e-10 0.00081922 1.46306e-13)
(-3.33266e-10 0.000830037 1.49194e-13)
(-3.38579e-10 0.000840852 1.46919e-13)
(-3.42893e-10 0.000850675 8.17898e-14)
(-3.41136e-10 0.000853072 8.11287e-14)
(-3.45449e-10 0.000862906 1.46291e-13)
(-3.50756e-10 0.000873723 1.49155e-13)
(-3.55986e-10 0.000884538 1.46857e-13)
(-3.60384e-10 0.000894361 8.17704e-14)
(-3.58538e-10 0.000896758 8.10974e-14)
(-3.62951e-10 0.000906592 1.46307e-13)
(-3.68144e-10 0.000917409 1.49071e-13)
(-3.73503e-10 0.000928224 1.46871e-13)
(-3.77752e-10 0.000938047 8.16599e-14)
(-3.76081e-10 0.000940444 8.11879e-14)
(-3.80288e-10 0.000950277 1.46172e-13)
(-3.85726e-10 0.000961095 1.49178e-13)
(-3.90794e-10 0.00097191 1.46658e-13)
(-3.95388e-10 0.000981733 8.18327e-14)
(-3.93306e-10 0.00098413 8.09396e-14)
(-3.98006e-10 0.000993963 1.46449e-13)
(-4.02853e-10 0.00100478 1.48795e-13)
(-4.08628e-10 0.0010156 1.47042e-13)
(-4.12375e-10 0.00102542 8.1296e-14)
(-4.11308e-10 0.00102782 8.15513e-14)
(-4.14793e-10 0.00103765 1.45736e-13)
(-4.211e-10 0.00104847 1.50344e-13)
(-4.25207e-10 0.00105938 1.50659e-13)
(-4.31517e-10 0.0010702 1.46487e-13)
(-4.35011e-10 0.00108003 8.22502e-14)
(-4.33926e-10 0.00108242 8.08959e-14)
(-4.37684e-10 0.00109226 1.4681e-13)
(-4.43447e-10 0.00110307 1.49026e-13)
(-4.48311e-10 0.00111389 1.47167e-13)
(-4.53004e-10 0.00112371 8.15844e-14)
(-4.50922e-10 0.00112611 8.14123e-14)
(-4.5551e-10 0.00113594 1.46348e-13)
(-4.60582e-10 0.00114676 1.49356e-13)
(-4.6602e-10 0.00115758 1.46823e-13)
(-4.70235e-10 0.0011674 8.18093e-14)
(-4.68551e-10 0.0011698 8.11936e-14)
(-4.72809e-10 0.00117963 1.465e-13)
(-4.78155e-10 0.00119045 1.49179e-13)
(-4.83365e-10 0.00120126 1.46906e-13)
(-4.87768e-10 0.00121109 8.16813e-14)
(-4.85931e-10 0.00121348 8.12718e-14)
(-4.90315e-10 0.00122331 1.46406e-13)
(-4.95557e-10 0.00123413 1.49211e-13)
(-5.00851e-10 0.00124495 1.46818e-13)
(-5.05186e-10 0.00125477 8.1703e-14)
(-5.03403e-10 0.00125717 8.12248e-14)
(-5.07747e-10 0.001267 1.46422e-13)
(-5.13017e-10 0.00127782 1.49151e-13)
(-5.18293e-10 0.00128863 1.46815e-13)
(-5.22636e-10 0.00129846 8.16515e-14)
(-5.20855e-10 0.00130085 8.12475e-14)
(-5.25189e-10 0.00131069 1.46373e-13)
(-5.30479e-10 0.0013215 1.49158e-13)
(-5.35723e-10 0.00133232 1.46748e-13)
(-5.40109e-10 0.00134214 8.16707e-14)
(-5.38272e-10 0.00134454 8.11957e-14)
(-5.42677e-10 0.00135437 1.46408e-13)
(-5.47879e-10 0.00136519 1.49073e-13)
(-5.53231e-10 0.00137601 1.46791e-13)
(-5.57485e-10 0.00138583 8.15656e-14)
(-5.55809e-10 0.00138823 8.12917e-14)
(-5.6002e-10 0.00139806 1.46271e-13)
(-5.65455e-10 0.00140888 1.49196e-13)
(-5.70526e-10 0.00141969 1.4659e-13)
(-5.75118e-10 0.00142952 8.1755e-14)
(-5.73037e-10 0.00143191 8.10375e-14)
(-5.77735e-10 0.00144174 1.46553e-13)
(-5.82585e-10 0.00145256 1.48818e-13)
(-5.88357e-10 0.00146338 1.46992e-13)
(-5.92107e-10 0.0014732 8.12252e-14)
(-5.91037e-10 0.0014756 8.16518e-14)
(-5.94524e-10 0.00148543 1.45837e-13)
(-6.00831e-10 0.00149625 1.50378e-13)
(-6.04938e-10 0.00150716 1.50598e-13)
(-6.11247e-10 0.00151798 1.46365e-13)
(-6.1474e-10 0.00152781 8.21415e-14)
(-6.13658e-10 0.00153021 8.09458e-14)
(-6.17414e-10 0.00154004 1.46829e-13)
(-6.23179e-10 0.00155085 1.48982e-13)
(-6.2804e-10 0.00156167 1.47056e-13)
(-6.32734e-10 0.0015715 8.14914e-14)
(-6.30652e-10 0.00157389 8.14596e-14)
(-6.35242e-10 0.00158372 1.46377e-13)
(-6.40312e-10 0.00159454 1.4932e-13)
(-6.45751e-10 0.00160536 1.4673e-13)
(-6.49963e-10 0.00161518 8.17228e-14)
(-6.48284e-10 0.00161758 8.12461e-14)
(-6.52537e-10 0.00162741 1.4653e-13)
(-6.57889e-10 0.00163823 1.49157e-13)
(-6.63091e-10 0.00164904 1.4682e-13)
(-6.67503e-10 0.00165887 8.16117e-14)
(-6.65655e-10 0.00166126 8.13159e-14)
(-6.70053e-10 0.0016711 1.46452e-13)
(-6.7528e-10 0.00168191 1.49184e-13)
(-6.80591e-10 0.00169273 1.46759e-13)
(-6.84904e-10 0.00170255 8.16227e-14)
(-6.83148e-10 0.00170495 8.12922e-14)
(-6.87461e-10 0.00171478 1.46445e-13)
(-6.92769e-10 0.0017256 1.49165e-13)
(-6.97998e-10 0.00173641 1.46727e-13)
(-7.02396e-10 0.00174624 8.16255e-14)
(-7.00549e-10 0.00174864 8.12589e-14)
(-7.04962e-10 0.00175847 1.46467e-13)
(-7.10158e-10 0.00176928 1.49098e-13)
(-7.15515e-10 0.0017801 1.46767e-13)
(-7.19765e-10 0.00178993 8.15346e-14)
(-7.18092e-10 0.00179232 8.13475e-14)
(-7.223e-10 0.00180215 1.46337e-13)
(-7.27739e-10 0.00181297 1.4922e-13)
(-7.32807e-10 0.00182379 1.46577e-13)
(-7.374e-10 0.00183361 8.17256e-14)
(-7.35318e-10 0.00183601 8.10958e-14)
(-7.40017e-10 0.00184584 1.4662e-13)
(-7.44867e-10 0.00185666 1.48847e-13)
(-7.50639e-10 0.00186747 1.46984e-13)
(-7.54389e-10 0.0018773 8.12004e-14)
(-7.53318e-10 0.00187969 8.171e-14)
(-7.56805e-10 0.00188953 1.45904e-13)
(-7.63113e-10 0.00190035 1.50412e-13)
(-7.6722e-10 0.00191126 1.50586e-13)
(-7.73529e-10 0.00192208 1.46319e-13)
(-7.77021e-10 0.00193191 8.20966e-14)
(-7.7594e-10 0.0019343 8.09792e-14)
(-7.79696e-10 0.00194413 1.46856e-13)
(-7.85461e-10 0.00195495 1.48975e-13)
(-7.90322e-10 0.00196577 1.47017e-13)
(-7.95016e-10 0.00197559 8.14513e-14)
(-7.92934e-10 0.00197799 8.14944e-14)
(-7.97523e-10 0.00198782 1.46406e-13)
(-8.02595e-10 0.00199864 1.49319e-13)
(-8.08032e-10 0.00200945 1.46694e-13)
(-8.12246e-10 0.00201928 8.16898e-14)
(-8.10564e-10 0.00202167 8.12782e-14)
(-8.14821e-10 0.0020315 1.46566e-13)
(-8.20168e-10 0.00204232 1.49155e-13)
(-8.25377e-10 0.00205314 1.46797e-13)
(-8.2978e-10 0.00206296 8.15751e-14)
(-8.27943e-10 0.00206536 8.13577e-14)
(-8.32328e-10 0.00207519 1.4648e-13)
(-8.3757e-10 0.00208601 1.492e-13)
(-8.42863e-10 0.00209682 1.46725e-13)
(-8.47198e-10 0.00210665 8.16086e-14)
(-8.45415e-10 0.00210905 8.13119e-14)
(-8.4976e-10 0.00211888 1.46502e-13)
(-8.55031e-10 0.00212969 1.49152e-13)
(-8.60305e-10 0.00214051 1.46737e-13)
(-8.64649e-10 0.00215034 8.15678e-14)
(-8.62867e-10 0.00215273 8.13354e-14)
(-8.67201e-10 0.00216256 1.46458e-13)
(-8.72492e-10 0.00217338 1.49169e-13)
(-8.77735e-10 0.0021842 1.46684e-13)
(-8.82121e-10 0.00219402 8.15967e-14)
(-8.80285e-10 0.00219642 8.12843e-14)
(-8.84689e-10 0.00220625 1.46499e-13)
(-8.89892e-10 0.00221707 1.49092e-13)
(-8.95243e-10 0.00222788 1.4674e-13)
(-8.99498e-10 0.00223771 8.15004e-14)
(-8.97821e-10 0.0022401 8.13809e-14)
(-9.02032e-10 0.00224993 1.46365e-13)
(-9.07468e-10 0.00226075 1.49223e-13)
(-9.12539e-10 0.00227157 1.4655e-13)
(-9.1713e-10 0.00228139 8.16983e-14)
(-9.15049e-10 0.00228379 8.11265e-14)
(-9.19746e-10 0.00229362 1.46652e-13)
(-9.24599e-10 0.00230444 1.48851e-13)
(-9.30369e-10 0.00231525 1.46964e-13)
(-9.3412e-10 0.00232508 8.11739e-14)
(-9.33048e-10 0.00232748 8.17435e-14)
(-9.36536e-10 0.00233731 1.45936e-13)
(-9.42843e-10 0.00234813 1.50421e-13)
(-9.4695e-10 0.00235904 1.50561e-13)
(-9.5326e-10 0.00236986 1.46273e-13)
(-9.56751e-10 0.00237969 8.20558e-14)
(-9.55671e-10 0.00238208 8.09958e-14)
(-9.59426e-10 0.00239191 1.46859e-13)
(-9.65193e-10 0.00240273 1.48956e-13)
(-9.70051e-10 0.00241355 1.46973e-13)
(-9.74747e-10 0.00242337 8.1416e-14)
(-9.72664e-10 0.00242577 8.15097e-14)
(-9.77255e-10 0.0024356 1.46414e-13)
(-9.82324e-10 0.00244642 1.49301e-13)
(-9.87764e-10 0.00245723 1.46658e-13)
(-9.91975e-10 0.00246706 8.16543e-14)
(-9.90297e-10 0.00246946 8.12982e-14)
(-9.94549e-10 0.00247929 1.46573e-13)
(-9.99902e-10 0.0024901 1.49146e-13)
(-1.0051e-09 0.00250092 1.46758e-13)
(-1.00952e-09 0.00251075 8.155e-14)
(-1.00767e-09 0.00251314 8.13695e-14)
(-1.01207e-09 0.00252297 1.46499e-13)
(-1.01729e-09 0.00253379 1.49181e-13)
(-1.0226e-09 0.0025446 1.46706e-13)
(-1.02692e-09 0.00255443 8.15673e-14)
(-1.02516e-09 0.00255683 8.13469e-14)
(-1.02947e-09 0.00256666 1.46496e-13)
(-1.03478e-09 0.00257747 1.49168e-13)
(-1.04001e-09 0.00258829 1.46683e-13)
(-1.04441e-09 0.00259812 8.15758e-14)
(-1.04256e-09 0.00260051 8.13149e-14)
(-1.04697e-09 0.00261034 1.46523e-13)
(-1.05217e-09 0.00262116 1.49107e-13)
(-1.05753e-09 0.00263198 1.4673e-13)
(-1.06178e-09 0.0026418 8.14903e-14)
(-1.0601e-09 0.0026442 8.14045e-14)
(-1.06431e-09 0.00265403 1.46397e-13)
(-1.06975e-09 0.00266485 1.49235e-13)
(-1.07482e-09 0.00267566 1.46547e-13)
(-1.07941e-09 0.00268549 8.16864e-14)
(-1.07733e-09 0.00268789 8.11533e-14)
(-1.08203e-09 0.00269772 1.46683e-13)
(-1.08688e-09 0.00270853 1.48867e-13)
(-1.09265e-09 0.00271935 1.46962e-13)
(-1.0964e-09 0.00272918 8.11646e-14)
(-1.09533e-09 0.00273157 8.177e-14)
(-1.09882e-09 0.0027414 1.45968e-13)
(-1.10513e-09 0.00275223 1.50437e-13)
(-1.10923e-09 0.00276313 1.50558e-13)
(-1.11554e-09 0.00277396 1.46255e-13)
(-1.11903e-09 0.00278378 8.20373e-14)
(-1.11795e-09 0.00278618 8.10116e-14)
(-1.12171e-09 0.00279601 1.46874e-13)
(-1.12747e-09 0.00280683 1.48955e-13)
(-1.13233e-09 0.00281764 1.46957e-13)
(-1.13703e-09 0.00282747 8.13985e-14)
(-1.13495e-09 0.00282987 8.15272e-14)
(-1.13954e-09 0.0028397 1.46429e-13)
(-1.14461e-09 0.00285051 1.49304e-13)
(-1.15004e-09 0.00286133 1.46643e-13)
(-1.15426e-09 0.00287115 8.16414e-14)
(-1.15258e-09 0.00287355 8.13127e-14)
(-1.15683e-09 0.00288338 1.46593e-13)
(-1.16218e-09 0.0028942 1.49146e-13)
(-1.16739e-09 0.00290501 1.46751e-13)
(-1.17179e-09 0.00291484 8.15311e-14)
(-1.16996e-09 0.00291724 8.13935e-14)
(-1.17434e-09 0.00292707 1.4651e-13)
(-1.17958e-09 0.00293788 1.49195e-13)
(-1.18488e-09 0.0029487 1.46686e-13)
(-1.18921e-09 0.00295853 8.15687e-14)
(-1.18743e-09 0.00296092 8.13489e-14)
(-1.19177e-09 0.00297075 1.46536e-13)
(-1.19704e-09 0.00298157 1.49152e-13)
(-1.20232e-09 0.00299239 1.46704e-13)
(-1.20666e-09 0.00300221 8.15317e-14)
(-1.20488e-09 0.00300461 8.13736e-14)
(-1.20921e-09 0.00301444 1.46495e-13)
(-1.2145e-09 0.00302526 1.49173e-13)
(-1.21975e-09 0.00303607 1.46656e-13)
(-1.22413e-09 0.0030459 8.15642e-14)
(-1.2223e-09 0.0030483 8.13235e-14)
(-1.2267e-09 0.00305813 1.46539e-13)
(-1.23191e-09 0.00306894 1.49101e-13)
(-1.23726e-09 0.00307976 1.46717e-13)
(-1.24151e-09 0.00308958 8.14712e-14)
(-1.23983e-09 0.00309198 8.14211e-14)
(-1.24404e-09 0.00310181 1.46408e-13)
(-1.24948e-09 0.00311263 1.49236e-13)
(-1.25455e-09 0.00312344 1.46532e-13)
(-1.25914e-09 0.00313327 8.16725e-14)
(-1.25706e-09 0.00313567 8.11672e-14)
(-1.26176e-09 0.0031455 1.46698e-13)
(-1.26661e-09 0.00315631 1.48867e-13)
(-1.27238e-09 0.00316713 1.46951e-13)
(-1.27613e-09 0.00317696 8.11501e-14)
(-1.27506e-09 0.00317935 8.17862e-14)
(-1.27855e-09 0.00318918 1.45982e-13)
(-1.28486e-09 0.00320001 1.5044e-13)
(-1.28896e-09 0.00321091 1.50543e-13)
(-1.29527e-09 0.00322174 1.4623e-13)
(-1.29876e-09 0.00323156 8.20153e-14)
(-1.29768e-09 0.00323396 8.10195e-14)
(-1.30144e-09 0.00324379 1.46874e-13)
(-1.30721e-09 0.00325461 1.48944e-13)
(-1.31206e-09 0.00326542 1.46933e-13)
(-1.31676e-09 0.00327525 8.138e-14)
(-1.31468e-09 0.00327765 8.15338e-14)
(-1.31927e-09 0.00328748 1.46432e-13)
(-1.32434e-09 0.00329829 1.49292e-13)
(-1.32978e-09 0.00330911 1.46623e-13)
(-1.33399e-09 0.00331894 8.16209e-14)
(-1.33231e-09 0.00332133 8.13236e-14)
(-1.33656e-09 0.00333116 1.46593e-13)
(-1.34192e-09 0.00334198 1.49141e-13)
(-1.34712e-09 0.0033528 1.46727e-13)
(-1.35153e-09 0.00336262 8.15196e-14)
(-1.34968e-09 0.00336502 8.13959e-14)
(-1.35408e-09 0.00337485 1.46523e-13)
(-1.35931e-09 0.00338567 1.4918e-13)
(-1.36462e-09 0.00339648 1.4668e-13)
(-1.36893e-09 0.00340631 8.15396e-14)
(-1.36717e-09 0.00340871 8.13744e-14)
(-1.37149e-09 0.00341854 1.46522e-13)
(-1.37679e-09 0.00342935 1.4917e-13)
(-1.38202e-09 0.00344017 1.4666e-13)
(-1.38642e-09 0.00344999 8.15507e-14)
(-1.38457e-09 0.00345239 8.13433e-14)
(-1.38899e-09 0.00346222 1.46551e-13)
(-1.39418e-09 0.00347304 1.49112e-13)
(-1.39954e-09 0.00348385 1.46712e-13)
(-1.40379e-09 0.00349368 8.14675e-14)
(-1.40212e-09 0.00349608 8.14338e-14)
(-1.40633e-09 0.00350591 1.46427e-13)
(-1.41176e-09 0.00351672 1.49243e-13)
(-1.41683e-09 0.00352754 1.46532e-13)
(-1.42143e-09 0.00353737 8.16662e-14)
(-1.41934e-09 0.00353976 8.11831e-14)
(-1.42404e-09 0.00354959 1.46716e-13)
(-1.42889e-09 0.00356041 1.48877e-13)
(-1.43466e-09 0.00357123 1.46951e-13)
(-1.43842e-09 0.00358105 8.11459e-14)
(-1.43734e-09 0.00358345 8.18015e-14)
(-1.44083e-09 0.00359328 1.46001e-13)
(-1.44714e-09 0.0036041 1.50451e-13)
(-1.45125e-09 0.00361501 1.50543e-13)
(-1.45755e-09 0.00362583 1.4622e-13)
(-1.46104e-09 0.00363566 8.20058e-14)
(-1.45997e-09 0.00363806 8.10288e-14)
(-1.46372e-09 0.00364789 1.46883e-13)
(-1.46949e-09 0.0036587 1.48944e-13)
(-1.47435e-09 0.00366952 1.46926e-13)
(-1.47904e-09 0.00367935 8.13703e-14)
(-1.47696e-09 0.00368174 8.15449e-14)
(-1.48155e-09 0.00369157 1.46441e-13)
(-1.48662e-09 0.00370239 1.49296e-13)
(-1.49206e-09 0.00371321 1.46614e-13)
(-1.49627e-09 0.00372303 8.16151e-14)
(-1.49459e-09 0.00372543 8.13314e-14)
(-1.49885e-09 0.00373526 1.46607e-13)
(-1.50419e-09 0.00374608 1.4914e-13)
(-1.5094e-09 0.00375689 1.46727e-13)
(-1.5138e-09 0.00376672 8.1507e-14)
(-1.51197e-09 0.00376912 8.14132e-14)
(-1.51635e-09 0.00377894 1.46527e-13)
(-1.5216e-09 0.00378976 1.49193e-13)
(-1.52689e-09 0.00380058 1.46664e-13)
(-1.53122e-09 0.0038104 8.15466e-14)
(-1.52944e-09 0.0038128 8.13694e-14)
(-1.53378e-09 0.00382263 1.46554e-13)
(-1.53906e-09 0.00383345 1.49152e-13)
(-1.54433e-09 0.00384426 1.46685e-13)
(-1.54867e-09 0.00385409 8.15116e-14)
(-1.54689e-09 0.00385649 8.13949e-14)
(-1.55123e-09 0.00386632 1.46516e-13)
(-1.55652e-09 0.00387713 1.49175e-13)
(-1.56176e-09 0.00388795 1.46641e-13)
(-1.56615e-09 0.00389778 8.15459e-14)
(-1.56431e-09 0.00390017 8.13456e-14)
(-1.56871e-09 0.00391 1.46561e-13)
(-1.57392e-09 0.00392082 1.49105e-13)
(-1.57927e-09 0.00393164 1.46704e-13)
(-1.58352e-09 0.00394146 8.14547e-14)
(-1.58185e-09 0.00394386 8.14439e-14)
(-1.58606e-09 0.00395369 1.46432e-13)
(-1.59149e-09 0.00396451 1.49243e-13)
(-1.59656e-09 0.00397532 1.46521e-13)
(-1.60115e-09 0.00398515 8.16578e-14)
(-1.59907e-09 0.00398755 8.11905e-14)
(-1.60377e-09 0.00399737 1.46724e-13)
(-1.60862e-09 0.00400819 1.48876e-13)
(-1.61439e-09 0.00401901 1.46943e-13)
(-1.61815e-09 0.00402883 8.11364e-14)
(-1.61707e-09 0.00403123 8.18109e-14)
(-1.62056e-09 0.00404106 1.46009e-13)
(-1.62687e-09 0.00405188 1.50452e-13)
(-1.63098e-09 0.00406279 1.50533e-13)
(-1.63728e-09 0.00407361 1.46204e-13)
(-1.64078e-09 0.00408344 8.19918e-14)
(-1.6397e-09 0.00408584 8.10333e-14)
(-1.64345e-09 0.00409567 1.46882e-13)
(-1.64922e-09 0.00410648 1.48937e-13)
(-1.65408e-09 0.0041173 1.46909e-13)
(-1.65877e-09 0.00412713 8.13588e-14)
(-1.65669e-09 0.00412952 8.15479e-14)
(-1.66128e-09 0.00413935 1.46443e-13)
(-1.66635e-09 0.00415017 1.49287e-13)
(-1.67179e-09 0.00416099 1.46602e-13)
(-1.676e-09 0.00417081 8.16013e-14)
(-1.67432e-09 0.00417321 8.13386e-14)
(-1.67857e-09 0.00418304 1.46606e-13)
(-1.68393e-09 0.00419386 1.49138e-13)
(-1.68913e-09 0.00420467 1.46709e-13)
(-1.69354e-09 0.0042145 8.15014e-14)
(-1.69169e-09 0.0042169 8.14117e-14)
(-1.69609e-09 0.00422673 1.46537e-13)
(-1.70132e-09 0.00423754 1.49179e-13)
(-1.70663e-09 0.00424836 1.46664e-13)
(-1.71094e-09 0.00425819 8.1523e-14)
(-1.70919e-09 0.00426058 8.13908e-14)
(-1.7135e-09 0.00427041 1.46538e-13)
(-1.71881e-09 0.00428123 1.49171e-13)
(-1.72404e-09 0.00429204 1.46647e-13)
(-1.72843e-09 0.00430187 8.15355e-14)
(-1.72659e-09 0.00430427 8.13604e-14)
(-1.731e-09 0.0043141 1.46568e-13)
(-1.7362e-09 0.00432491 1.49115e-13)
(-1.74155e-09 0.00433573 1.467e-13)
(-1.7458e-09 0.00434556 8.14538e-14)
(-1.74413e-09 0.00434795 8.14516e-14)
(-1.74834e-09 0.00435778 1.46446e-13)
(-1.75378e-09 0.0043686 1.49247e-13)
(-1.75885e-09 0.00437942 1.46523e-13)
(-1.76344e-09 0.00438924 8.16538e-14)
(-1.76136e-09 0.00439164 8.12014e-14)
(-1.76605e-09 0.00440147 1.46736e-13)
(-1.77091e-09 0.00441229 1.48883e-13)
(-1.77668e-09 0.0044231 1.46944e-13)
(-1.78043e-09 0.00443293 8.11343e-14)
(-1.77935e-09 0.00443533 8.18209e-14)
(-1.78284e-09 0.00444516 1.46022e-13)
(-1.78915e-09 0.00445598 1.50459e-13)
(-1.79326e-09 0.00446689 1.50534e-13)
(-1.79957e-09 0.00447771 1.46199e-13)
(-1.80306e-09 0.00448754 8.19863e-14)
(-1.80198e-09 0.00448993 8.10395e-14)
(-1.80573e-09 0.00449976 1.46889e-13)
(-1.8115e-09 0.00451058 1.48937e-13)
(-1.81636e-09 0.0045214 1.46906e-13)
(-1.82105e-09 0.00453122 8.13526e-14)
(-1.81897e-09 0.00453362 8.15559e-14)
(-1.82356e-09 0.00454345 1.46449e-13)
(-1.82863e-09 0.00455427 1.4929e-13)
(-1.83407e-09 0.00456508 1.46597e-13)
(-1.83828e-09 0.00457491 8.15987e-14)
(-1.8366e-09 0.00457731 8.13432e-14)
(-1.84086e-09 0.00458714 1.46617e-13)
(-1.84621e-09 0.00459795 1.49137e-13)
(-1.85141e-09 0.00460877 1.46711e-13)
(-1.85582e-09 0.0046186 8.14918e-14)
(-1.85398e-09 0.00462099 8.14256e-14)
(-1.85837e-09 0.00463082 1.46537e-13)
(-1.86361e-09 0.00464164 1.49191e-13)
(-1.8689e-09 0.00465245 1.46651e-13)
(-1.87324e-09 0.00466228 8.15327e-14)
(-1.87145e-09 0.00466468 8.13824e-14)
(-1.8758e-09 0.00467451 1.46566e-13)
(-1.88107e-09 0.00468532 1.49152e-13)
(-1.88634e-09 0.00469614 1.46673e-13)
(-1.89069e-09 0.00470597 8.14987e-14)
(-1.8889e-09 0.00470836 8.14085e-14)
(-1.89324e-09 0.00471819 1.46529e-13)
(-1.89853e-09 0.00472901 1.49177e-13)
(-1.90377e-09 0.00473983 1.4663e-13)
(-1.90816e-09 0.00474965 8.15342e-14)
(-1.90632e-09 0.00475205 8.13597e-14)
(-1.91073e-09 0.00476188 1.46576e-13)
(-1.91593e-09 0.0047727 1.49108e-13)
(-1.92128e-09 0.00478351 1.46696e-13)
(-1.92554e-09 0.00479334 8.1444e-14)
(-1.92386e-09 0.00479574 8.14586e-14)
(-1.92807e-09 0.00480557 1.46448e-13)
(-1.93351e-09 0.00481638 1.49247e-13)
(-1.93858e-09 0.0048272 1.46514e-13)
(-1.94317e-09 0.00483703 8.16482e-14)
(-1.94109e-09 0.00483942 8.12057e-14)
(-1.94578e-09 0.00484925 1.46741e-13)
(-1.95064e-09 0.00486007 1.48881e-13)
(-1.95641e-09 0.00487088 1.46938e-13)
(-1.96016e-09 0.00488071 8.11275e-14)
(-1.95908e-09 0.00488311 8.18269e-14)
(-1.96257e-09 0.00489294 1.46026e-13)
(-1.96888e-09 0.00490376 1.50459e-13)
(-1.97299e-09 0.00491467 1.50526e-13)
(-1.9793e-09 0.00492549 1.46188e-13)
(-1.98279e-09 0.00493532 8.19764e-14)
(-1.98171e-09 0.00493772 8.10424e-14)
(-1.98546e-09 0.00494754 1.46888e-13)
(-1.99123e-09 0.00495836 1.48932e-13)
(-1.99609e-09 0.00496918 1.46894e-13)
(-2.00078e-09 0.004979 8.13449e-14)
(-1.9987e-09 0.0049814 8.15572e-14)
(-2.00329e-09 0.00499123 1.4645e-13)
(-2.00836e-09 0.00500205 1.49284e-13)
(-2.0138e-09 0.00501286 1.46589e-13)
(-2.01801e-09 0.00502269 8.15883e-14)
(-2.01634e-09 0.00502509 8.13485e-14)
(-2.02059e-09 0.00503492 1.46614e-13)
(-2.02594e-09 0.00504573 1.49136e-13)
(-2.03114e-09 0.00505655 1.46697e-13)
(-2.03555e-09 0.00506638 8.14895e-14)
(-2.03371e-09 0.00506877 8.14222e-14)
(-2.0381e-09 0.0050786 1.46546e-13)
(-2.04333e-09 0.00508942 1.49178e-13)
(-2.04864e-09 0.00510024 1.46653e-13)
(-2.05295e-09 0.00511006 8.1512e-14)
(-2.0512e-09 0.00511246 8.14018e-14)
(-2.05551e-09 0.00512229 1.46548e-13)
(-2.06082e-09 0.00513311 1.49172e-13)
(-2.06605e-09 0.00514392 1.46638e-13)
(-2.07045e-09 0.00515375 8.15254e-14)
(-2.0686e-09 0.00515615 8.13719e-14)
(-2.07301e-09 0.00516597 1.4658e-13)
(-2.07821e-09 0.00517679 1.49116e-13)
(-2.08357e-09 0.00518761 1.46693e-13)
(-2.08782e-09 0.00519743 8.14445e-14)
(-2.08614e-09 0.00519983 8.14635e-14)
(-2.09035e-09 0.00520966 1.46458e-13)
(-2.09579e-09 0.00522048 1.4925e-13)
(-2.10086e-09 0.00523129 1.46516e-13)
(-2.10545e-09 0.00524112 8.16455e-14)
(-2.10337e-09 0.00524352 8.12138e-14)
(-2.10807e-09 0.00525335 1.46749e-13)
(-2.11292e-09 0.00526416 1.48887e-13)
(-2.11869e-09 0.00527498 1.46939e-13)
(-2.12244e-09 0.00528481 8.11265e-14)
(-2.12137e-09 0.0052872 8.1834e-14)
(-2.12486e-09 0.00529703 1.46036e-13)
(-2.13116e-09 0.00530786 1.50465e-13)
(-2.13527e-09 0.00531876 1.50527e-13)
(-2.14158e-09 0.00532959 1.46185e-13)
(-2.14507e-09 0.00533941 8.1973e-14)
(-2.14399e-09 0.00534181 8.10468e-14)
(-2.14775e-09 0.00535164 1.46893e-13)
(-2.15351e-09 0.00536246 1.48933e-13)
(-2.15837e-09 0.00537327 1.46892e-13)
(-2.16307e-09 0.0053831 8.13406e-14)
(-2.16098e-09 0.0053855 8.15634e-14)
(-2.16557e-09 0.00539533 1.46454e-13)
(-2.17065e-09 0.00540614 1.49287e-13)
(-2.17608e-09 0.00541696 1.46585e-13)
(-2.1803e-09 0.00542679 8.15874e-14)
(-2.17861e-09 0.00542918 8.13513e-14)
(-2.18287e-09 0.00543901 1.46623e-13)
(-2.18822e-09 0.00544983 1.49135e-13)
(-2.19343e-09 0.00546065 1.467e-13)
(-2.19783e-09 0.00547047 8.14814e-14)
(-2.19599e-09 0.00547287 8.14341e-14)
(-2.20038e-09 0.0054827 1.46545e-13)
(-2.20562e-09 0.00549351 1.4919e-13)
(-2.21091e-09 0.00550433 1.46641e-13)
(-2.21525e-09 0.00551416 8.1523e-14)
(-2.21347e-09 0.00551656 8.13914e-14)
(-2.21781e-09 0.00552638 1.46575e-13)
(-2.22308e-09 0.0055372 1.49152e-13)
(-2.22836e-09 0.00554802 1.46665e-13)
(-2.2327e-09 0.00555784 8.14899e-14)
(-2.23092e-09 0.00556024 8.14179e-14)
(-2.23525e-09 0.00557007 1.46539e-13)
(-2.24054e-09 0.00558089 1.49178e-13)
(-2.24579e-09 0.0055917 1.46623e-13)
(-2.25017e-09 0.00560153 8.1526e-14)
(-2.24833e-09 0.00560393 8.13696e-14)
(-2.25274e-09 0.00561376 1.46586e-13)
(-2.25794e-09 0.00562457 1.49111e-13)
(-2.26329e-09 0.00563539 1.4669e-13)
(-2.26755e-09 0.00564522 8.14366e-14)
(-2.26587e-09 0.00564761 8.14689e-14)
(-2.27008e-09 0.00565744 1.46459e-13)
(-2.27552e-09 0.00566826 1.4925e-13)
(-2.28059e-09 0.00567908 1.4651e-13)
(-2.28518e-09 0.0056889 8.16415e-14)
(-2.2831e-09 0.0056913 8.12163e-14)
(-2.2878e-09 0.00570113 1.46753e-13)
(-2.29265e-09 0.00571194 1.48885e-13)
(-2.29842e-09 0.00572276 1.46935e-13)
(-2.30217e-09 0.00573259 8.11212e-14)
(-2.3011e-09 0.00573499 8.18382e-14)
(-2.30459e-09 0.00574481 1.46038e-13)
(-2.31089e-09 0.00575564 1.50464e-13)
(-2.315e-09 0.00576654 1.50522e-13)
(-2.32131e-09 0.00577737 1.46176e-13)
(-2.3248e-09 0.0057872 8.19655e-14)
(-2.32372e-09 0.00578959 8.10487e-14)
(-2.32748e-09 0.00579942 1.46892e-13)
(-2.33324e-09 0.00581024 1.48928e-13)
(-2.3381e-09 0.00582105 1.46883e-13)
(-2.3428e-09 0.00583088 8.1335e-14)
(-2.34071e-09 0.00583328 8.15638e-14)
(-2.34531e-09 0.00584311 1.46455e-13)
(-2.35037e-09 0.00585392 1.49281e-13)
(-2.35581e-09 0.00586474 1.46579e-13)
(-2.36002e-09 0.00587457 8.15791e-14)
(-2.35835e-09 0.00587696 8.13556e-14)
(-2.3626e-09 0.00588679 1.4662e-13)
(-2.36795e-09 0.00589761 1.49135e-13)
(-2.37315e-09 0.00590843 1.46689e-13)
(-2.37757e-09 0.00591825 8.14809e-14)
(-2.37572e-09 0.00592065 8.14297e-14)
(-2.38012e-09 0.00593048 1.46553e-13)
(-2.38534e-09 0.0059413 1.49178e-13)
(-2.39065e-09 0.00595211 1.46646e-13)
(-2.39497e-09 0.00596194 8.15041e-14)
(-2.39321e-09 0.00596434 8.14097e-14)
(-2.39752e-09 0.00597417 1.46556e-13)
(-2.40283e-09 0.00598498 1.49172e-13)
(-2.40806e-09 0.0059958 1.46631e-13)
(-2.41246e-09 0.00600563 8.15181e-14)
(-2.41061e-09 0.00600802 8.13802e-14)
(-2.41502e-09 0.00601785 1.46588e-13)
(-2.42022e-09 0.00602867 1.49118e-13)
(-2.42558e-09 0.00603948 1.46687e-13)
(-2.42983e-09 0.00604931 8.14379e-14)
(-2.42815e-09 0.00605171 8.14721e-14)
(-2.43236e-09 0.00606154 1.46467e-13)
(-2.4378e-09 0.00607235 1.49253e-13)
(-2.44287e-09 0.00608317 1.46512e-13)
(-2.44746e-09 0.006093 8.16394e-14)
(-2.44538e-09 0.00609539 8.12227e-14)
(-2.45008e-09 0.00610522 1.46759e-13)
(-2.45493e-09 0.00611604 1.4889e-13)
(-2.4607e-09 0.00612686 1.46935e-13)
(-2.46445e-09 0.00613668 8.11209e-14)
(-2.46338e-09 0.00613908 8.18435e-14)
(-2.46687e-09 0.00614891 1.46046e-13)
(-2.47318e-09 0.00615973 1.50469e-13)
(-2.47728e-09 0.00617064 1.50523e-13)
(-2.48359e-09 0.00618146 1.46174e-13)
(-2.48708e-09 0.00619129 8.19634e-14)
(-2.486e-09 0.00619369 8.10521e-14)
(-2.48976e-09 0.00620352 1.46896e-13)
(-2.49553e-09 0.00621433 1.48929e-13)
(-2.50038e-09 0.00622515 1.46882e-13)
(-2.50508e-09 0.00623498 8.13319e-14)
(-2.503e-09 0.00623737 8.15689e-14)
(-2.50759e-09 0.0062472 1.46458e-13)
(-2.51266e-09 0.00625802 1.49284e-13)
(-2.51809e-09 0.00626884 1.46576e-13)
(-2.52231e-09 0.00627866 8.15792e-14)
(-2.52063e-09 0.00628106 8.13571e-14)
(-2.52488e-09 0.00629089 1.46628e-13)
(-2.53023e-09 0.00630171 1.49133e-13)
(-2.53544e-09 0.00631252 1.46692e-13)
(-2.53984e-09 0.00632235 8.14737e-14)
(-2.53801e-09 0.00632475 8.14404e-14)
(-2.54239e-09 0.00633458 1.4655e-13)
(-2.54763e-09 0.00634539 1.49189e-13)
(-2.55293e-09 0.00635621 1.46634e-13)
(-2.55726e-09 0.00636604 8.15159e-14)
(-2.55548e-09 0.00636843 8.1398e-14)
(-2.55982e-09 0.00637826 1.46581e-13)
(-2.56509e-09 0.00638908 1.49152e-13)
(-2.57037e-09 0.00639989 1.46659e-13)
(-2.57471e-09 0.00640972 8.14833e-14)
(-2.57293e-09 0.00641212 8.14249e-14)
(-2.57726e-09 0.00642195 1.46545e-13)
(-2.58256e-09 0.00643276 1.49179e-13)
(-2.5878e-09 0.00644358 1.46618e-13)
(-2.59218e-09 0.00645341 8.152e-14)
(-2.59035e-09 0.0064558 8.13769e-14)
(-2.59475e-09 0.00646563 1.46593e-13)
(-2.59996e-09 0.00647645 1.49112e-13)
(-2.60531e-09 0.00648727 1.46685e-13)
(-2.60956e-09 0.00649709 8.14311e-14)
(-2.60788e-09 0.00649949 8.14765e-14)
(-2.6121e-09 0.00650932 1.46467e-13)
(-2.61753e-09 0.00652014 1.49253e-13)
(-2.6226e-09 0.00653095 1.46506e-13)
(-2.62719e-09 0.00654078 8.16366e-14)
(-2.62511e-09 0.00654318 8.12241e-14)
(-2.62981e-09 0.00655301 1.46762e-13)
(-2.63466e-09 0.00656382 1.48888e-13)
(-2.64043e-09 0.00657464 1.46932e-13)
(-2.64418e-09 0.00658447 8.11166e-14)
(-2.64311e-09 0.00658686 8.18466e-14)
(-2.6466e-09 0.00659669 1.46047e-13)
(-2.65291e-09 0.00660752 1.50468e-13)
(-2.65701e-09 0.00661842 1.50518e-13)
(-2.66332e-09 0.00662924 1.46168e-13)
(-2.66681e-09 0.00663907 8.19574e-14)
(-2.66574e-09 0.00664147 8.10535e-14)
(-2.66949e-09 0.0066513 1.46894e-13)
(-2.67526e-09 0.00666212 1.48926e-13)
(-2.68011e-09 0.00667293 1.46875e-13)
(-2.68481e-09 0.00668276 8.13277e-14)
(-2.68273e-09 0.00668516 8.15687e-14)
(-2.68732e-09 0.00669498 1.46459e-13)
(-2.69239e-09 0.0067058 1.49279e-13)
(-2.69783e-09 0.00671662 1.46572e-13)
(-2.70204e-09 0.00672644 8.15722e-14)
(-2.70036e-09 0.00672884 8.13609e-14)
(-2.70461e-09 0.00673867 1.46624e-13)
(-2.70997e-09 0.00674949 1.49134e-13)