/*--------------------------------*- C++ -*----------------------------------*\
| =========                 |                                                 |
| \\      /  F ield         | OpenFOAM: The Open Source CFD Toolbox           |
|  \\    /   O peration     | Version:  2206                                  |
|   \\  /    A nd           | Website:  www.openfoam.com                      |
|    \\/     M anipulation  |                                                 |
\*---------------------------------------------------------------------------*/
FoamFile
{
    version     2.0;
    format      ascii;
    arch        "LSB;label=32;scalar=64";
    class       volScalarField;
    location    "390";
    object      p;
}
// * * * * * * * * * * * * * * * * * * * * * * * * * * * * * * * * * * * * * //

dimensions      [0 2 -2 0 0 0 0];

internalField   nonuniform List<scalar> 
100000
(
1.31561e-09
2.33177e-08
3.5117e-08
5.37471e-08
6.94071e-08
8.62226e-08
9.7376e-08
1.16504e-07
1.32678e-07
1.56086e-07
1.77111e-07
1.97504e-07
2.22867e-07
2.48584e-07
2.7906e-07
3.09597e-07
3.37524e-07
3.72665e-07
4.05981e-07
4.46615e-07
4.84577e-07
5.23091e-07
5.65361e-07
6.09864e-07
6.57101e-07
7.07612e-07
7.59298e-07
8.07788e-07
8.63896e-07
9.18255e-07
9.79621e-07
1.03909e-06
1.09793e-06
1.16229e-06
1.22665e-06
1.29659e-06
1.36581e-06
1.43346e-06
1.50743e-06
1.58073e-06
1.66018e-06
1.73844e-06
1.81554e-06
1.89862e-06
1.98132e-06
2.06995e-06
2.15757e-06
2.24387e-06
2.33632e-06
2.42823e-06
2.52622e-06
2.62306e-06
2.71873e-06
2.8204e-06
2.9217e-06
3.0289e-06
3.13514e-06
3.24e-06
3.35111e-06
3.46156e-06
3.57825e-06
3.69358e-06
3.80802e-06
3.92814e-06
4.04826e-06
4.17384e-06
4.29901e-06
4.42214e-06
4.55232e-06
4.68087e-06
4.81684e-06
4.95004e-06
5.08404e-06
5.2217e-06
5.36179e-06
5.5045e-06
5.65068e-06
5.7979e-06
5.94212e-06
6.09389e-06
6.24398e-06
6.40111e-06
6.5563e-06
6.71097e-06
6.87115e-06
7.03134e-06
7.19716e-06
7.36221e-06
7.52578e-06
7.69564e-06
7.86487e-06
8.04027e-06
8.21445e-06
8.38751e-06
8.56659e-06
8.74524e-06
8.92991e-06
9.11347e-06
9.29584e-06
9.48426e-06
9.67226e-06
9.86623e-06
1.00592e-05
1.02508e-05
1.04487e-05
1.06459e-05
1.08494e-05
1.10514e-05
1.12527e-05
1.14596e-05
1.16665e-05
1.18788e-05
1.20908e-05
1.23007e-05
1.25177e-05
1.2733e-05
1.29558e-05
1.31758e-05
1.33967e-05
1.36211e-05
1.3848e-05
1.40776e-05
1.43106e-05
1.45446e-05
1.47757e-05
1.50143e-05
1.52512e-05
1.54952e-05
1.57372e-05
1.59787e-05
1.62257e-05
1.64728e-05
1.67255e-05
1.69774e-05
1.72278e-05
1.74845e-05
1.77406e-05
1.80029e-05
1.82639e-05
1.85238e-05
1.87897e-05
1.90553e-05
1.93268e-05
1.95973e-05
1.98665e-05
2.01418e-05
2.04166e-05
2.06975e-05
2.09773e-05
2.12559e-05
2.15405e-05
2.18247e-05
2.21149e-05
2.24041e-05
2.26919e-05
2.2986e-05
2.32795e-05
2.35792e-05
2.38775e-05
2.41749e-05
2.4478e-05
2.47812e-05
2.50898e-05
2.5398e-05
2.57041e-05
2.60174e-05
2.63289e-05
2.6648e-05
2.69642e-05
2.72813e-05
2.7602e-05
2.79251e-05
2.82509e-05
2.85802e-05
2.89104e-05
2.92377e-05
2.95726e-05
2.99058e-05
3.0246e-05
3.05842e-05
3.0922e-05
3.12653e-05
3.16086e-05
3.19575e-05
3.23056e-05
3.26523e-05
3.30053e-05
3.33576e-05
3.37162e-05
3.40734e-05
3.44296e-05
3.47918e-05
3.51536e-05
3.55214e-05
3.58881e-05
3.62536e-05
3.66251e-05
3.69963e-05
3.73734e-05
3.77495e-05
3.81242e-05
3.85052e-05
3.88856e-05
3.92722e-05
3.96574e-05
4.00418e-05
4.04319e-05
4.08219e-05
4.12174e-05
4.16125e-05
4.20056e-05
4.24058e-05
4.28043e-05
4.32102e-05
4.36134e-05
4.40174e-05
4.4425e-05
4.48351e-05
4.52478e-05
4.5664e-05
4.60812e-05
4.64954e-05
4.69172e-05
4.73373e-05
4.77644e-05
4.81896e-05
4.86143e-05
4.90445e-05
4.94747e-05
4.99106e-05
5.03456e-05
5.07793e-05
5.12192e-05
5.16584e-05
5.21039e-05
5.25481e-05
5.29912e-05
5.34403e-05
5.38891e-05
5.43438e-05
5.47974e-05
5.52498e-05
5.57083e-05
5.61663e-05
5.66305e-05
5.70934e-05
5.75552e-05
5.8023e-05
5.84904e-05
5.89638e-05
5.94362e-05
5.99072e-05
6.03845e-05
6.08611e-05
6.1344e-05
6.18255e-05
6.23062e-05
6.27925e-05
6.32789e-05
6.37707e-05
6.4262e-05
6.47514e-05
6.52479e-05
6.57426e-05
6.62449e-05
6.67443e-05
6.72446e-05
6.77485e-05
6.82549e-05
6.87638e-05
6.92763e-05
6.97898e-05
7.03003e-05
7.08184e-05
7.13348e-05
7.18582e-05
7.23797e-05
7.29007e-05
7.34271e-05
7.39536e-05
7.44858e-05
7.50171e-05
7.5547e-05
7.60832e-05
7.66188e-05
7.71605e-05
7.7701e-05
7.82404e-05
7.87858e-05
7.93308e-05
7.98818e-05
8.04317e-05
8.09805e-05
8.15352e-05
8.20896e-05
8.26499e-05
8.32092e-05
8.37672e-05
8.43314e-05
8.4895e-05
8.54648e-05
8.60333e-05
8.66009e-05
8.71741e-05
8.77474e-05
8.83262e-05
8.89045e-05
8.94808e-05
9.00642e-05
9.06459e-05
9.12351e-05
9.18215e-05
9.24087e-05
9.29995e-05
9.35929e-05
9.41888e-05
9.47882e-05
9.53886e-05
9.59861e-05
9.65911e-05
9.71944e-05
9.78048e-05
9.84132e-05
9.90211e-05
9.96345e-05
0.000100248
0.000100867
0.000101485
0.000102102
0.000102725
0.000103348
0.000103977
0.000104604
0.00010523
0.000105863
0.000106495
0.000107133
0.000107769
0.000108405
0.000109047
0.000109688
0.000110335
0.000110982
0.000111627
0.000112278
0.000112928
0.000113585
0.000114241
0.000114895
0.000115555
0.000116215
0.000116881
0.000117546
0.00011821
0.00011888
0.000119549
0.000120224
0.000120899
0.000121571
0.000122251
0.000122929
0.000123615
0.000124297
0.000124981
0.000125668
0.000126357
0.00012705
0.000127745
0.000128442
0.000129136
0.000129837
0.000130537
0.000131243
0.000131948
0.000132652
0.000133362
0.000134072
0.000134787
0.000135502
0.000136215
0.000136934
0.000137653
0.000138378
0.000139102
0.000139825
0.000140553
0.000141281
0.000142016
0.000142749
0.000143481
0.000144219
0.000144956
0.0001457
0.000146443
0.000147184
0.000147931
0.000148678
0.000149431
0.000150183
0.000150934
0.00015169
0.000152447
0.000153209
0.00015397
0.00015473
0.000155496
0.000156261
0.000157034
0.000157803
0.000158574
0.000159348
0.000160125
0.000160904
0.000161686
0.00016247
0.000163251
0.000164039
0.000164826
0.000165619
0.000166411
0.000167202
0.000167999
0.000168795
0.000169598
0.000170399
0.000171199
0.000172006
0.000172811
0.000173623
0.000174434
0.000175244
0.000176059
0.000176874
0.000177696
0.000178516
0.000179335
0.00018016
0.000180984
0.000181815
0.000182644
0.000183472
0.000184307
0.000185141
0.000185981
0.000186819
0.000187657
0.000188501
0.000189344
0.000190193
0.000191041
0.000191888
0.000192741
0.000193594
0.000194452
0.00019531
0.000196166
0.000197029
0.00019789
0.000198759
0.000199625
0.000200492
0.000201362
0.000202235
0.00020311
0.000203989
0.000204869
0.000205746
0.000206631
0.000207514
0.000208403
0.000209291
0.000210179
0.000211072
0.000211965
0.000212864
0.000213761
0.000214658
0.00021556
0.000216462
0.000217371
0.000218278
0.000219184
0.000220095
0.000221007
0.000221924
0.000222841
0.000223756
0.000224677
0.000225598
0.000226525
0.000227451
0.000228375
0.000229306
0.000230236
0.000231172
0.000232107
0.000233041
0.000233981
0.000234921
0.000235866
0.000236811
0.000237754
0.000238704
0.000239652
0.000240608
0.00024156
0.000242514
0.000243471
0.000244431
0.000245394
0.00024636
0.000247327
0.000248291
0.000249262
0.000250232
0.000251209
0.000252184
0.000253158
0.000254138
0.000255118
0.000256104
0.000257088
0.000258072
0.000259061
0.00026005
0.000261045
0.000262039
0.000263032
0.000264031
0.00026503
0.000266034
0.000267037
0.000268039
0.000269048
0.000270055
0.000271069
0.000272082
0.000273094
0.000274111
0.000275128
0.000276151
0.000277173
0.000278194
0.000279221
0.000280248
0.00028128
0.000282311
0.000283342
0.000284378
0.000285414
0.000286456
0.000287497
0.000288536
0.000289582
0.000290626
0.000291678
0.000292728
0.000293778
0.000294831
0.000295887
0.000296946
0.000298008
0.000299072
0.000300132
0.0003012
0.000302266
0.000303339
0.00030441
0.000305481
0.000306557
0.000307633
0.000308715
0.000309796
0.000310876
0.000311962
0.000313047
0.000314139
0.000315229
0.000316318
0.000317413
0.000318508
0.000319609
0.000320708
0.000321807
0.000322911
0.000324015
0.000325126
0.000326235
0.000327342
0.000328456
0.00032957
0.000330689
0.000331807
0.000332925
0.000334048
0.000335171
0.000336299
0.000337427
0.000338553
0.000339687
0.000340818
0.000341957
0.000343093
0.00034423
0.000345371
0.000346514
0.000347659
0.000348809
0.000349959
0.000351106
0.000352261
0.000353414
0.000354574
0.000355732
0.00035689
0.000358053
0.000359216
0.000360385
0.000361553
0.00036272
0.000363892
0.000365065
0.000366243
0.00036742
0.000368596
0.000369779
0.00037096
0.000372148
0.000373335
0.00037452
0.000375711
0.000376902
0.0003781
0.000379295
0.00038049
0.000381691
0.000382892
0.000384098
0.000385303
0.000386507
0.000387718
0.000388927
0.000390143
0.000391358
0.000392571
0.000393791
0.00039501
0.000396235
0.000397459
0.000398681
0.000399911
0.000401139
0.000402374
0.000403606
0.00040484
0.000406076
0.000407316
0.000408558
0.000409803
0.00041105
0.000412293
0.000413544
0.000414794
0.00041605
0.000417305
0.000418559
0.000419818
0.000421078
0.000422343
0.000423607
0.00042487
0.000426139
0.000427408
0.000428682
0.000429956
0.000431228
0.000432507
0.000433785
0.000435069
0.000436352
0.000437633
0.000438921
0.000440209
0.000441502
0.000442794
0.000444085
0.000445382
0.000446679
0.000447982
0.000449283
0.000450584
0.00045189
0.000453196
0.000454508
0.00045582
0.000457129
0.000458445
0.00045976
0.000461082
0.000462402
0.000463722
0.000465046
0.000466372
0.000467701
0.000469033
0.000470367
0.000471697
0.000473035
0.000474372
0.000475715
0.000477056
0.000478397
0.000479744
0.00048109
0.000482442
0.000483794
0.000485143
0.0004865
0.000487855
0.000489217
0.000490577
0.000491937
0.000493302
0.000494667
0.000496038
0.000497408
0.000498776
0.000500151
0.000501525
0.000502906
0.000504285
0.000505663
0.000507047
0.000508431
0.00050982
0.000511209
0.000512596
0.00051399
0.000515383
0.000516782
0.00051818
0.000519577
0.000520979
0.000522382
0.00052379
0.000525197
0.000526603
0.000528016
0.000529427
0.000530845
0.000532261
0.000533677
0.000535098
0.00053652
0.000537945
0.000539374
0.000540804
0.000542231
0.000543665
0.000545098
0.000546537
0.000547975
0.000549412
0.000550855
0.000552298
0.000553746
0.000555194
0.00055664
0.000558092
0.000559544
0.000561002
0.000562459
0.000563915
0.000565376
0.000566838
0.000568305
0.000569771
0.000571236
0.000572707
0.000574178
0.000575654
0.00057713
0.000578604
0.000580085
0.000581564
0.000583051
0.000584535
0.000586019
0.000587509
0.000588998
0.000590493
0.000591988
0.00059348
0.00059498
0.000596478
0.000597983
0.000599486
0.00060099
0.000602497
0.000604006
0.000605518
0.000607034
0.000608551
0.000610065
0.000611586
0.000613105
0.000614632
0.000616157
0.000617681
0.000619211
0.00062074
0.000622276
0.00062381
0.000625343
0.000626883
0.000628422
0.000629967
0.00063151
0.000633053
0.000634601
0.00063615
0.000637704
0.000639257
0.000640809
0.000642367
0.000643925
0.000645488
0.000647051
0.000648612
0.000650179
0.000651746
0.000653319
0.000654891
0.000656461
0.000658038
0.000659614
0.000661197
0.000662778
0.000664358
0.000665944
0.00066753
0.000669121
0.000670712
0.000672301
0.000673897
0.000675491
0.000677093
0.000678692
0.000680291
0.000681895
0.000683501
0.000685109
0.000686721
0.000688334
0.000689944
0.000691562
0.000693178
0.000694801
0.000696422
0.000698042
0.000699668
0.000701294
0.000702926
0.000704557
0.000706186
0.000707822
0.000709457
0.000711098
0.000712738
0.000714377
0.000716022
0.000717667
0.000719317
0.000720967
0.000722615
0.000724269
0.000725923
0.000727583
0.000729242
0.000730899
0.000732563
0.000734226
0.000735895
0.000737563
0.00073923
0.000740903
0.000742576
0.000744254
0.000745932
0.000747608
0.000749291
0.000750972
0.000752661
0.000754347
0.000756034
0.000757724
0.000759417
0.000761112
0.000762811
0.000764511
0.000766208
0.000767913
0.000769615
0.000771325
0.000773033
0.000774741
0.000776454
0.000778167
0.000779885
0.000781603
0.00078332
0.000785042
0.000786764
0.000788492
0.000790219
0.000791945
0.000793677
0.000795409
0.000797146
0.000798883
0.000800618
0.000802359
0.0008041
0.000805847
0.000807592
0.000809337
0.000811087
0.000812838
0.000814594
0.000816349
0.000818103
0.000819863
0.000821622
0.000823388
0.000825152
0.000826916
0.000828685
0.000830454
0.000832228
0.000834003
0.000835775
0.000837554
0.000839331
0.000841116
0.000842899
0.000844682
0.000846468
0.000848258
0.000850049
0.000851845
0.000853641
0.000855434
0.000857235
0.000859034
0.00086084
0.000862645
0.000864448
0.000866258
0.000868067
0.000869882
0.000871696
0.000873509
0.000875328
0.000877146
0.00087897
0.000880794
0.000882616
0.000884444
0.000886272
0.000888106
0.000889938
0.00089177
0.000893607
0.000895445
0.000897288
0.00089913
0.000900971
0.000902818
0.000904664
0.000906517
0.000908368
0.000910218
0.000912074
0.00091393
0.000915792
0.000917653
0.000919512
0.000921378
0.000923243
0.000925115
0.000926984
0.000928854
0.000930727
0.000932604
0.000934482
0.000936364
0.000938248
0.000940128
0.000942016
0.000943902
0.000945795
0.000947686
0.000949577
0.000951473
0.000953369
0.000955271
0.000957172
0.000959072
0.000960978
0.000962883
0.000964795
0.000966705
0.000968614
0.000970529
0.000972444
0.000974365
0.000976284
0.000978203
0.000980127
0.000982051
0.000983981
0.00098591
0.000987838
0.000989772
0.000991706
0.000993645
0.000995583
0.00099752
0.000999464
0.00100141
0.00100336
0.0010053
0.00100725
0.0010092
0.00101115
0.00101311
0.00101507
0.00101702
0.00101899
0.00102095
0.00102292
0.00102488
0.00102685
0.00102882
0.00103079
0.00103277
0.00103474
0.00103672
0.0010387
0.00104068
0.00104267
0.00104466
0.00104664
0.00104863
0.00105062
0.00105262
0.00105461
0.00105661
0.00105861
0.00106061
0.00106261
0.00106462
0.00106663
0.00106863
0.00107064
0.00107265
0.00107467
0.00107669
0.0010787
0.00108072
0.00108274
0.00108477
0.00108679
0.00108882
0.00109085
0.00109288
0.00109491
0.00109695
0.00109898
0.00110102
0.00110306
0.00110511
0.00110715
0.00110919
0.00111124
0.00111329
0.00111534
0.0011174
0.00111945
0.00112151
0.00112357
0.00112563
0.00112769
0.00112976
0.00113182
0.0011339
0.00113596
0.00113804
0.00114012
0.00114219
0.00114427
0.00114635
0.00114843
0.00115052
0.0011526
0.00115469
0.00115678
0.00115887
0.00116097
0.00116306
0.00116516
0.00116726
0.00116936
0.00117146
0.00117356
0.00117567
0.00117778
0.00117989
0.001182
0.00118412
0.00118623
0.00118835
0.00119047
0.00119259
0.00119471
0.00119684
0.00119897
0.0012011
0.00120323
0.00120536
0.0012075
0.00120963
0.00121177
0.00121391
0.00121605
0.0012182
0.00122034
0.00122249
0.00122464
0.00122679
0.00122894
0.0012311
0.00123326
0.00123542
0.00123758
0.00123974
0.00124191
0.00124408
0.00124625
0.00124842
0.00125059
0.00125277
0.00125494
0.00125712
0.0012593
0.00126148
0.00126367
0.00126585
0.00126804
0.00127023
0.00127242
0.00127462
0.00127681
0.00127901
0.00128121
0.00128341
0.00128561
0.00128782
0.00129003
0.00129223
0.00129444
0.00129666
0.00129887
0.00130109
0.00130331
0.00130552
0.00130774
0.00130997
0.0013122
0.00131442
0.00131665
0.00131888
0.00132111
0.00132335
0.00132559
0.00132782
0.00133006
0.00133231
0.00133455
0.0013368
0.00133905
0.0013413
0.00134355
0.0013458
0.00134806
0.00135032
0.00135258
0.00135484
0.0013571
0.00135937
0.00136164
0.00136391
0.00136618
0.00136845
0.00137073
0.001373
0.00137528
0.00137756
0.00137984
0.00138213
0.00138442
0.0013867
0.00138899
0.00139128
0.00139358
0.00139588
0.00139817
0.00140047
0.00140277
0.00140508
0.00140738
0.00140968
0.00141199
0.0014143
0.00141662
0.00141893
0.00142125
0.00142357
0.00142588
0.00142821
0.00143053
0.00143285
0.00143518
0.00143751
0.00143985
0.00144218
0.00144451
0.00144685
0.00144919
0.00145153
0.00145387
0.00145622
0.00145856
0.00146091
0.00146326
0.00146562
0.00146797
0.00147032
0.00147268
0.00147504
0.00147741
0.00147977
0.00148213
0.0014845
0.00148687
0.00148925
0.00149162
0.00149399
0.00149637
0.00149875
0.00150113
0.00150351
0.00150589
0.00150828
0.00151067
0.00151306
0.00151545
0.00151784
0.00152024
0.00152264
0.00152504
0.00152744
0.00152984
0.00153224
0.00153465
0.00153706
0.00153947
0.00154188
0.0015443
0.00154671
0.00154913
0.00155155
0.00155397
0.0015564
0.00155882
0.00156125
0.00156368
0.00156612
0.00156855
0.00157098
0.00157342
0.00157586
0.0015783
0.00158074
0.00158319
0.00158564
0.00158809
0.00159054
0.00159299
0.00159544
0.0015979
0.00160036
0.00160282
0.00160528
0.00160774
0.00161021
0.00161268
0.00161515
0.00161762
0.00162009
0.00162256
0.00162504
0.00162752
0.00163
0.00163248
0.00163497
0.00163746
0.00163994
0.00164243
0.00164492
0.00164742
0.00164992
0.00165241
0.00165491
0.00165741
0.00165991
0.00166242
0.00166493
0.00166743
0.00166995
0.00167246
0.00167497
0.00167749
0.00168001
0.00168253
0.00168505
0.00168757
0.0016901
0.00169263
0.00169516
0.00169769
0.00170022
0.00170276
0.0017053
0.00170784
0.00171038
0.00171292
0.00171547
0.00171802
0.00172056
0.00172311
0.00172567
0.00172822
0.00173078
0.00173333
0.0017359
0.00173846
0.00174102
0.00174359
0.00174615
0.00174872
0.00175129
0.00175387
0.00175645
0.00175902
0.0017616
0.00176418
0.00176676
0.00176935
0.00177193
0.00177452
0.00177711
0.00177971
0.0017823
0.00178489
0.00178749
0.00179009
0.00179269
0.0017953
0.0017979
0.00180051
0.00180311
0.00180573
0.00180834
0.00181096
0.00181357
0.00181619
0.00181881
0.00182144
0.00182406
0.00182669
0.00182931
0.00183194
0.00183458
0.00183721
0.00183985
0.00184248
0.00184512
0.00184777
0.00185041
0.00185305
0.0018557
0.00185835
0.001861
0.00186366
0.00186631
0.00186896
0.00187162
0.00187428
0.00187695
0.00187961
0.00188227
0.00188494
0.00188761
0.00189028
0.00189295
0.00189563
0.00189831
0.00190099
0.00190367
0.00190635
0.00190903
0.00191172
0.00191441
0.0019171
0.00191979
0.00192249
0.00192518
0.00192788
0.00193058
0.00193328
0.00193598
0.00193869
0.00194139
0.00194411
0.00194682
0.00194953
0.00195225
0.00195496
0.00195768
0.0019604
0.00196312
0.00196585
0.00196858
0.00197131
0.00197404
0.00197677
0.0019795
0.00198224
0.00198498
0.00198772
0.00199046
0.0019932
0.00199594
0.00199869
0.00200144
0.00200419
0.00200694
0.0020097
0.00201246
0.00201522
0.00201797
0.00202074
0.0020235
0.00202627
0.00202904
0.0020318
0.00203457
0.00203735
0.00204012
0.0020429
0.00204568
0.00204846
0.00205124
0.00205403
0.00205681
0.0020596
0.00206239
0.00206518
0.00206798
0.00207078
0.00207358
0.00207637
0.00207918
0.00208198
0.00208479
0.0020876
0.0020904
0.00209322
0.00209603
0.00209885
0.00210166
0.00210448
0.0021073
0.00211012
0.00211295
0.00211578
0.0021186
0.00212143
0.00212427
0.0021271
0.00212994
0.00213277
0.00213561
0.00213845
0.0021413
0.00214415
0.00214699
0.00214984
0.00215269
0.00215555
0.0021584
0.00216125
0.00216411
0.00216697
0.00216984
0.0021727
0.00217557
0.00217843
0.0021813
0.00218418
0.00218705
0.00218992
0.0021928
0.00219568
0.00219856
0.00220144
0.00220433
0.00220721
0.0022101
0.00221299
0.00221589
0.00221878
0.00222168
0.00222458
0.00222748
0.00223038
0.00223329
0.00223619
0.0022391
0.00224201
0.00224492
0.00224783
0.00225075
0.00225367
0.00225658
0.00225951
0.00226243
0.00226535
0.00226828
0.00227121
0.00227414
0.00227707
0.00228
0.00228294
0.00228588
0.00228882
0.00229176
0.0022947
0.00229765
0.0023006
0.00230355
0.0023065
0.00230945
0.0023124
0.00231536
0.00231832
0.00232128
0.00232424
0.0023272
0.00233017
0.00233314
0.00233611
0.00233908
0.00234205
0.00234503
0.00234801
0.00235099
0.00235396
0.00235695
0.00235993
0.00236292
0.00236591
0.0023689
0.00237189
0.00237489
0.00237788
0.00238089
0.00238389
0.00238689
0.00238989
0.0023929
0.00239591
0.00239892
0.00240193
0.00240494
0.00240795
0.00241098
0.00241399
0.00241701
0.00242004
0.00242306
0.00242609
0.00242912
0.00243215
0.00243518
0.00243821
0.00244125
0.00244429
0.00244733
0.00245037
0.00245341
0.00245646
0.00245951
0.00246255
0.0024656
0.00246866
0.00247171
0.00247477
0.00247783
0.00248089
0.00248395
0.00248702
0.00249008
0.00249315
0.00249622
0.00249929
0.00250236
0.00250544
0.00250852
0.0025116
0.00251468
0.00251776
0.00252085
0.00252394
0.00252703
0.00253012
0.00253321
0.00253631
0.0025394
0.0025425
0.0025456
0.0025487
0.00255181
0.00255492
0.00255802
0.00256113
0.00256424
0.00256736
0.00257047
0.00257359
0.00257671
0.00257983
0.00258296
0.00258608
0.0025892
0.00259233
0.00259546
0.0025986
0.00260173
0.00260487
0.002608
0.00261114
0.00261429
0.00261743
0.00262057
0.00262372
0.00262687
0.00263002
0.00263318
0.00263633
0.00263949
0.00264264
0.00264581
0.00264897
0.00265213
0.0026553
0.00265847
0.00266164
0.00266481
0.00266799
0.00267116
0.00267434
0.00267752
0.0026807
0.00268389
0.00268707
0.00269026
0.00269345
0.00269664
0.00269983
0.00270302
0.00270622
0.00270942
0.00271262
0.00271583
0.00271903
0.00272224
0.00272544
0.00272866
0.00273187
0.00273508
0.00273829
0.00274151
0.00274473
0.00274795
0.00275117
0.0027544
0.00275763
0.00276086
0.00276409
0.00276732
0.00277055
0.00277379
0.00277703
0.00278027
0.00278351
0.00278675
0.00279
0.00279325
0.0027965
0.00279974
0.002803
0.00280625
0.00280951
0.00281277
0.00281603
0.00281929
0.00282256
0.00282583
0.0028291
0.00283237
0.00283564
0.00283891
0.00284219
0.00284547
0.00284875
0.00285203
0.00285531
0.0028586
0.00286189
0.00286518
0.00286847
0.00287176
0.00287505
0.00287835
0.00288165
0.00288495
0.00288825
0.00289156
0.00289487
0.00289818
0.00290148
0.0029048
0.00290811
0.00291143
0.00291474
0.00291806
0.00292138
0.0029247
0.00292803
0.00293136
0.00293468
0.00293802
0.00294135
0.00294468
0.00294802
0.00295136
0.0029547
0.00295804
0.00296138
0.00296473
0.00296808
0.00297142
0.00297478
0.00297813
0.00298149
0.00298485
0.0029882
0.00299157
0.00299493
0.0029983
0.00300166
0.00300503
0.0030084
0.00301177
0.00301515
0.00301853
0.0030219
0.00302528
0.00302866
0.00303205
0.00303544
0.00303882
0.00304221
0.0030456
0.003049
0.00305239
0.00305579
0.00305919
0.00306259
0.00306599
0.0030694
0.0030728
0.00307621
0.00307962
0.00308303
0.00308645
0.00308986
0.00309328
0.00309669
0.00310012
0.00310354
0.00310696
0.00311039
0.00311382
0.00311725
0.00312069
0.00312412
0.00312755
0.00313099
0.00313443
0.00313788
0.00314132
0.00314477
0.00314822
0.00315166
0.00315512
0.00315857
0.00316203
0.00316549
0.00316894
0.00317241
0.00317587
0.00317933
0.0031828
0.00318627
0.00318974
0.00319322
0.00319669
0.00320017
0.00320364
0.00320713
0.00321061
0.00321409
0.00321758
0.00322106
0.00322456
0.00322805
0.00323154
0.00323503
0.00323853
0.00324203
0.00324553
0.00324903
0.00325254
0.00325604
0.00325955
0.00326306
0.00326657
0.00327009
0.0032736
0.00327712
0.00328064
0.00328416
0.00328768
0.00329121
0.00329474
0.00329827
0.00330179
0.00330533
0.00330886
0.0033124
0.00331594
0.00331948
0.00332302
0.00332657
0.00333011
0.00333366
0.00333721
0.00334076
0.00334432
0.00334787
0.00335143
0.00335499
0.00335855
0.00336212
0.00336568
0.00336925
0.00337282
0.00337639
0.00337996
0.00338354
0.00338711
0.00339069
0.00339427
0.00339785
0.00340144
0.00340503
0.00340861
0.0034122
0.00341579
0.00341938
0.00342298
0.00342658
0.00343018
0.00343378
0.00343738
0.00344099
0.00344459
0.0034482
0.00345181
0.00345542
0.00345904
0.00346265
0.00346627
0.00346989
0.00347351
0.00347713
0.00348076
0.00348439
0.00348802
0.00349165
0.00349528
0.00349892
0.00350256
0.00350619
0.00350983
0.00351348
0.00351712
0.00352077
0.00352442
0.00352807
0.00353172
0.00353538
0.00353903
0.00354269
0.00354635
0.00355001
0.00355367
0.00355734
0.003561
0.00356467
0.00356834
0.00357202
0.00357569
0.00357937
0.00358305
0.00358673
0.00359041
0.0035941
0.00359778
0.00360147
0.00360516
0.00360885
0.00361254
0.00361624
0.00361993
0.00362363
0.00362734
0.00363104
0.00363474
0.00363845
0.00364215
0.00364587
0.00364958
0.00365329
0.00365701
0.00366072
0.00366445
0.00366817
0.00367189
0.00367562
0.00367935
0.00368307
0.00368681
0.00369054
0.00369428
0.00369801
0.00370175
0.0037055
0.00370924
0.00371298
0.00371673
0.00372048
0.00372423
0.00372798
0.00373173
0.00373549
0.00373925
0.00374301
0.00374677
0.00375053
0.0037543
0.00375806
0.00376184
0.00376561
0.00376938
0.00377315
0.00377693
0.00378071
0.00378449
0.00378827
0.00379205
0.00379584
0.00379963
0.00380342
0.00380721
0.003811
0.0038148
0.0038186
0.00382239
0.00382619
0.00383
0.0038338
0.00383761
0.00384142
0.00384523
0.00384904
0.00385286
0.00385667
0.0038605
0.00386432
0.00386814
0.00387196
0.00387579
0.00387962
0.00388345
0.00388727
0.00389111
0.00389494
0.00389878
0.00390262
0.00390646
0.00391031
0.00391415
0.003918
0.00392185
0.0039257
0.00392955
0.0039334
0.00393726
0.00394112
0.00394498
0.00394884
0.0039527
0.00395657
0.00396044
0.0039643
0.00396817
0.00397205
0.00397592
0.0039798
0.00398368
0.00398756
0.00399144
0.00399533
0.00399921
0.0040031
0.00400699
0.00401088
0.00401477
0.00401867
0.00402256
0.00402646
0.00403036
0.00403427
0.00403818
0.00404208
0.00404599
0.0040499
0.00405381
0.00405773
0.00406165
0.00406556
0.00406949
0.00407341
0.00407733
0.00408126
0.00408519
0.00408912
0.00409305
0.00409698
0.00410092
0.00410485
0.00410879
0.00411273
0.00411668
0.00412063
0.00412457
0.00412852
0.00413247
0.00413642
0.00414038
0.00414433
0.00414829
0.00415225
0.00415621
0.00416018
0.00416414
0.00416811
0.00417208
0.00417605
0.00418002
0.00418399
0.00418797
0.00419195
0.00419593
0.00419991
0.0042039
0.00420788
0.00421187
0.00421586
0.00421986
0.00422385
0.00422784
0.00423184
0.00423584
0.00423985
0.00424385
0.00424785
0.00425186
0.00425587
0.00425989
0.0042639
0.00426791
0.00427193
0.00427595
0.00427997
0.00428399
0.00428801
0.00429204
0.00429607
0.0043001
0.00430413
0.00430816
0.0043122
0.00431624
0.00432028
0.00432432
0.00432836
0.00433241
0.00433645
0.0043405
0.00434455
0.0043486
0.00435266
0.00435671
0.00436077
0.00436483
0.00436889
0.00437296
0.00437702
0.00438109
0.00438516
0.00438923
0.0043933
0.00439738
0.00440146
0.00440553
0.00440961
0.0044137
0.00441778
0.00442187
0.00442596
0.00443005
0.00443414
0.00443823
0.00444233
0.00444643
0.00445053
0.00445463
0.00445873
0.00446284
0.00446695
0.00447106
0.00447517
0.00447928
0.0044834
0.00448752
0.00449163
0.00449575
0.00449988
0.004504
0.00450813
0.00451226
0.00451638
0.00452052
0.00452465
0.00452879
0.00453292
0.00453706
0.0045412
0.00454535
0.00454949
0.00455364
0.00455779
0.00456194
0.00456609
0.00457025
0.0045744
0.00457856
0.00458272
0.00458688
0.00459105
0.00459521
0.00459938
0.00460355
0.00460772
0.00461189
0.00461607
0.00462025
0.00462442
0.00462861
0.00463279
0.00463698
0.00464116
0.00464535
0.00464954
0.00465373
0.00465793
0.00466213
0.00466632
0.00467052
0.00467472
0.00467893
0.00468314
0.00468734
0.00469155
0.00469576
0.00469998
0.00470419
0.00470841
0.00471263
0.00471685
0.00472107
0.0047253
0.00472952
0.00473375
0.00473798
0.00474221
0.00474645
0.00475068
0.00475492
0.00475916
0.0047634
0.00476764
0.00477189
0.00477613
0.00478038
0.00478463
0.00478889
0.00479314
0.0047974
0.00480165
0.00480592
0.00481018
0.00481444
0.0048187
0.00482297
0.00482724
0.00483152
0.00483579
0.00484006
0.00484434
0.00484862
0.00485291
0.00485719
0.00486147
0.00486576
0.00487005
0.00487434
0.00487863
0.00488293
0.00488722
0.00489152
0.00489582
0.00490013
0.00490443
0.00490873
0.00491304
0.00491735
0.00492166
0.00492597
0.00493029
0.00493461
0.00493893
0.00494325
0.00494757
0.00495189
0.00495622
0.00496055
0.00496488
0.00496921
0.00497354
0.00497788
0.00498222
0.00498656
0.0049909
0.00499524
0.00499959
0.00500394
0.00500828
0.00501263
0.00501698
0.00502134
0.0050257
0.00503006
0.00503442
0.00503878
0.00504315
0.00504751
0.00505188
0.00505625
0.00506062
0.005065
0.00506937
0.00507375
0.00507813
0.00508251
0.00508689
0.00509128
0.00509567
0.00510006
0.00510445
0.00510884
0.00511323
0.00511763
0.00512203
0.00512643
0.00513083
0.00513523
0.00513964
0.00514405
0.00514846
0.00515287
0.00515728
0.0051617
0.00516612
0.00517053
0.00517495
0.00517938
0.0051838
0.00518823
0.00519266
0.00519709
0.00520152
0.00520595
0.00521039
0.00521482
0.00521927
0.00522371
0.00522815
0.0052326
0.00523704
0.00524149
0.00524594
0.0052504
0.00525485
0.00525931
0.00526377
0.00526823
0.00527269
0.00527716
0.00528162
0.00528609
0.00529056
0.00529503
0.00529951
0.00530399
0.00530846
0.00531294
0.00531742
0.00532191
0.00532639
0.00533088
0.00533537
0.00533986
0.00534435
0.00534885
0.00535334
0.00535784
0.00536234
0.00536684
0.00537135
0.00537585
0.00538036
0.00538487
0.00538938
0.0053939
0.00539841
0.00540293
0.00540745
0.00541197
0.00541649
0.00542101
0.00542554
0.00543007
0.0054346
0.00543913
0.00544366
0.0054482
0.00545274
0.00545728
0.00546182
0.00546637
0.00547091
0.00547546
0.00548001
0.00548456
0.00548912
0.00549367
0.00549823
0.00550279
0.00550735
0.00551191
0.00551647
0.00552104
0.00552561
0.00553018
0.00553476
0.00553933
0.0055439
0.00554848
0.00555306
0.00555764
0.00556223
0.00556681
0.0055714
0.00557599
0.00558058
0.00558517
0.00558977
0.00559436
0.00559896
0.00560356
0.00560816
0.00561277
0.00561737
0.00562198
0.00562659
0.0056312
0.00563582
0.00564043
0.00564505
0.00564967
0.00565429
0.00565891
0.00566353
0.00566816
0.00567279
0.00567742
0.00568205
0.00568669
0.00569132
0.00569596
0.00570061
0.00570524
0.00570989
0.00571453
0.00571919
0.00572384
0.00572848
0.00573314
0.00573779
0.00574245
0.00574711
0.00575177
0.00575644
0.0057611
0.00576577
0.00577044
0.0057751
0.00577978
0.00578445
0.00578913
0.00579381
0.00579849
0.00580317
0.00580785
0.00581254
0.00581723
0.00582191
0.0058266
0.0058313
0.00583599
0.00584069
0.00584539
0.00585009
0.00585479
0.0058595
0.0058642
0.00586891
0.00587362
0.00587833
0.00588304
0.00588776
0.00589247
0.00589719
0.00590191
0.00590664
0.00591137
0.00591609
0.00592082
0.00592555
0.00593028
0.00593502
0.00593976
0.00594449
0.00594924
0.00595398
0.00595872
0.00596347
0.00596822
0.00597297
0.00597772
0.00598247
0.00598723
0.00599198
0.00599674
0.0060015
0.00600627
0.00601104
0.0060158
0.00602057
0.00602534
0.00603011
0.00603489
0.00603966
0.00604444
0.00604922
0.006054
0.00605879
0.00606357
0.00606836
0.00607315
0.00607794
0.00608273
0.00608752
0.00609232
0.00609712
0.00610192
0.00610673
0.00611153
0.00611633
0.00612114
0.00612595
0.00613077
0.00613558
0.00614039
0.00614521
0.00615003
0.00615486
0.00615968
0.0061645
0.00616933
0.00617416
0.006179
0.00618383
0.00618866
0.0061935
0.00619834
0.00620318
0.00620802
0.00621286
0.00621771
0.00622256
0.00622741
0.00623226
0.00623711
0.00624197
0.00624683
0.00625169
0.00625655
0.00626141
0.00626628
0.00627114