/*--------------------------------*- C++ -*----------------------------------*\
| =========                 |                                                 |
| \\      /  F ield         | OpenFOAM: The Open Source CFD Toolbox           |
|  \\    /   O peration     | Version:  2206                                  |
|   \\  /    A nd           | Website:  www.openfoam.com                      |
|    \\/     M anipulation  |                                                 |
\*---------------------------------------------------------------------------*/
FoamFile
{
    version     2.0;
    format      ascii;
    arch        "LSB;label=32;scalar=64";
    class       volScalarField;
    location    "138";
    object      p;
}
// * * * * * * * * * * * * * * * * * * * * * * * * * * * * * * * * * * * * * //

dimensions      [0 2 -2 0 0 0 0];

internalField   nonuniform List<scalar> 
50000
(
-1.68394e-11
4.20495e-09
5.69928e-09
1.24725e-08
2.1632e-08
3.23446e-08
4.04221e-08
5.4918e-08
6.93498e-08
8.94675e-08
1.08819e-07
1.2703e-07
1.50807e-07
1.75025e-07
2.04624e-07
2.33615e-07
2.61316e-07
2.9483e-07
3.28432e-07
3.67926e-07
4.06053e-07
4.43974e-07
4.86159e-07
5.30724e-07
5.77817e-07
6.29014e-07
6.80322e-07
7.29914e-07
7.85548e-07
8.41257e-07
9.02689e-07
9.6315e-07
1.02262e-06
1.08766e-06
1.15308e-06
1.22403e-06
1.29412e-06
1.36316e-06
1.43781e-06
1.51281e-06
1.59335e-06
1.67302e-06
1.75166e-06
1.8359e-06
1.92049e-06
2.01063e-06
2.09989e-06
2.18812e-06
2.28195e-06
2.37613e-06
2.47586e-06
2.57471e-06
2.67254e-06
2.77596e-06
2.87973e-06
2.98905e-06
3.09749e-06
3.20491e-06
3.31792e-06
3.43129e-06
3.55021e-06
3.66822e-06
3.78525e-06
3.90784e-06
4.03082e-06
4.15929e-06
4.28695e-06
4.41349e-06
4.54579e-06
4.67818e-06
4.81653e-06
4.95336e-06
5.09011e-06
5.23107e-06
5.37446e-06
5.52033e-06
5.67036e-06
5.8204e-06
5.96882e-06
6.12325e-06
6.27776e-06
6.438e-06
6.59722e-06
6.75551e-06
6.91935e-06
7.08357e-06
7.25333e-06
7.42218e-06
7.59004e-06
7.76349e-06
7.93728e-06
8.11664e-06
8.29508e-06
8.47254e-06
8.65557e-06
8.83896e-06
9.02791e-06
9.21595e-06
9.40299e-06
9.59562e-06
9.7886e-06
9.98714e-06
1.01848e-05
1.03814e-05
1.05836e-05
1.07862e-05
1.09943e-05
1.12015e-05
1.14078e-05
1.16196e-05
1.18318e-05
1.20495e-05
1.22663e-05
1.24821e-05
1.27036e-05
1.29252e-05
1.31527e-05
1.33788e-05
1.36047e-05
1.38349e-05
1.40675e-05
1.43026e-05
1.45418e-05
1.47811e-05
1.50187e-05
1.52623e-05
1.5506e-05
1.57555e-05
1.60039e-05
1.62514e-05
1.65045e-05
1.67579e-05
1.70169e-05
1.72749e-05
1.7532e-05
1.77947e-05
1.80577e-05
1.83262e-05
1.85939e-05
1.88605e-05
1.91328e-05
1.94054e-05
1.96836e-05
1.99608e-05
2.0237e-05
2.05189e-05
2.08011e-05
2.10888e-05
2.13757e-05
2.16615e-05
2.19529e-05
2.22447e-05
2.25421e-05
2.28385e-05
2.31339e-05
2.34349e-05
2.37363e-05
2.40433e-05
2.43493e-05
2.46543e-05
2.49649e-05
2.52759e-05
2.55924e-05
2.5908e-05
2.62226e-05
2.65429e-05
2.68633e-05
2.71897e-05
2.75145e-05
2.78393e-05
2.81682e-05
2.84996e-05
2.88335e-05
2.91716e-05
2.95096e-05
2.9846e-05
3.01885e-05
3.0531e-05
3.08792e-05
3.12265e-05
3.15728e-05
3.19246e-05
3.22768e-05
3.26346e-05
3.29915e-05
3.33473e-05
3.37088e-05
3.40706e-05
3.4438e-05
3.48044e-05
3.51699e-05
3.55409e-05
3.59123e-05
3.62893e-05
3.66653e-05
3.70404e-05
3.7421e-05
3.7802e-05
3.81886e-05
3.85742e-05
3.89589e-05
3.93491e-05
3.97397e-05
4.01358e-05
4.0531e-05
4.09253e-05
4.13251e-05
4.17253e-05
4.2131e-05
4.25359e-05
4.29396e-05
4.33491e-05
4.37587e-05
4.41743e-05
4.45884e-05
4.50023e-05
4.54205e-05
4.58411e-05
4.62642e-05
4.66915e-05
4.71187e-05
4.75444e-05
4.7976e-05
4.84077e-05
4.88452e-05
4.92816e-05
4.97171e-05
5.01582e-05
5.05996e-05
5.10466e-05
5.14927e-05
5.19378e-05
5.23884e-05
5.28394e-05
5.3296e-05
5.37517e-05
5.42064e-05
5.46666e-05
5.51272e-05
5.55934e-05
5.60586e-05
5.65229e-05
5.69928e-05
5.7463e-05
5.79387e-05
5.84135e-05
5.88874e-05
5.93669e-05
5.98466e-05
6.0332e-05
6.08164e-05
6.12999e-05
6.17889e-05
6.22783e-05
6.27732e-05
6.32673e-05
6.37603e-05
6.42589e-05
6.47579e-05
6.52624e-05
6.57661e-05
6.62686e-05
6.6777e-05
6.72854e-05
6.77998e-05
6.83126e-05
6.88254e-05
6.93423e-05
6.98618e-05
7.03836e-05
7.09097e-05
7.14357e-05
7.19602e-05
7.24906e-05
7.30212e-05
7.35574e-05
7.40927e-05
7.4627e-05
7.51668e-05
7.57071e-05
7.62529e-05
7.67977e-05
7.73416e-05
7.78911e-05
7.84409e-05
7.89963e-05
7.95507e-05
8.01042e-05
8.06633e-05
8.12227e-05
8.17876e-05
8.23517e-05
8.29148e-05
8.34834e-05
8.40524e-05
8.4627e-05
8.52006e-05
8.57733e-05
8.63515e-05
8.69301e-05
8.75143e-05
8.80975e-05
8.86797e-05
8.92676e-05
8.98558e-05
9.04495e-05
9.10424e-05
9.16341e-05
9.22317e-05
9.28293e-05
9.34329e-05
9.40349e-05
9.46369e-05
9.52431e-05
9.58517e-05
9.64628e-05
9.70781e-05
9.76933e-05
9.8307e-05
9.89266e-05
9.95464e-05
0.000100172
0.000100796
0.00010142
0.000102049
0.000102678
0.000103313
0.000103947
0.00010458
0.000105219
0.000105858
0.000106503
0.000107146
0.000107789
0.000108437
0.000109086
0.00010974
0.000110393
0.000111046
0.000111704
0.000112362
0.000113026
0.000113688
0.00011435
0.000115018
0.000115686
0.000116359
0.000117031
0.000117703
0.00011838
0.000119057
0.00011974
0.000120422
0.000121103
0.00012179
0.000122477
0.000123169
0.000123861
0.000124552
0.000125248
0.000125944
0.000126647
0.000127348
0.000128048
0.000128753
0.000129461
0.000130171
0.000130885
0.000131599
0.000132311
0.00013303
0.000133748
0.000134473
0.000135196
0.000135918
0.000136646
0.000137374
0.000138108
0.000138841
0.000139573
0.00014031
0.000141048
0.000141792
0.000142534
0.000143275
0.000144023
0.00014477
0.000145523
0.000146275
0.000147026
0.000147783
0.00014854
0.000149302
0.000150064
0.000150825
0.000151591
0.000152358
0.00015313
0.000153901
0.000154671
0.000155447
0.000156223
0.000157005
0.000157786
0.000158566
0.000159351
0.000160137
0.000160928
0.000161718
0.000162508
0.000163303
0.000164099
0.000164898
0.000165702
0.000166505
0.000167307
0.000168114
0.000168922
0.000169735
0.000170548
0.000171359
0.000172177
0.000172994
0.000173817
0.000174639
0.00017546
0.000176287
0.000177114
0.000177946
0.000178778
0.000179609
0.000180445
0.000181282
0.000182124
0.000182965
0.000183806
0.000184651
0.000185498
0.000186349
0.0001872
0.00018805
0.000188906
0.000189761
0.000190623
0.000191483
0.000192343
0.000193208
0.000194073
0.000194944
0.000195814
0.000196683
0.000197558
0.000198433
0.000199313
0.000200193
0.000201072
0.000201956
0.00020284
0.000203731
0.00020462
0.000205508
0.000206401
0.000207297
0.000208195
0.000209097
0.000209999
0.000210899
0.000211806
0.000212712
0.000213625
0.000214536
0.000215446
0.000216362
0.000217278
0.0002182
0.000219121
0.000220041
0.000220967
0.000221892
0.000222824
0.000223754
0.000224684
0.000225619
0.000226554
0.000227495
0.000228435
0.000229374
0.000230319
0.000231264
0.000232215
0.000233164
0.000234113
0.000235067
0.000236022
0.000236982
0.000237941
0.0002389
0.000239863
0.000240828
0.000241797
0.000242766
0.000243734
0.000244708
0.000245681
0.000246661
0.000247639
0.000248617
0.000249599
0.000250584
0.000251571
0.000252562
0.000253553
0.000254543
0.000255539
0.000256535
0.000257536
0.000258536
0.000259536
0.000260541
0.000261547
0.000262558
0.000263568
0.000264577
0.000265592
0.000266607
0.000267627
0.000268647
0.000269666
0.00027069
0.000271714
0.000272745
0.000273774
0.000274802
0.000275836
0.00027687
0.00027791
0.000278949
0.000279987
0.00028103
0.000282074
0.000283124
0.000284172
0.00028522
0.000286273
0.000287326
0.000288385
0.000289443
0.0002905
0.000291563
0.000292626
0.000293694
0.000294762
0.000295829
0.000296901
0.000297973
0.000299052
0.000300129
0.000301205
0.000302286
0.00030337
0.000304456
0.000305546
0.000306636
0.000307724
0.000308819
0.000309913
0.000311014
0.000312113
0.000313211
0.000314315
0.00031542
0.000316529
0.000317638
0.000318746
0.00031986
0.000320974
0.000322093
0.000323211
0.000324329
0.000325452
0.000326575
0.000327704
0.000328833
0.00032996
0.000331092
0.000332225
0.000333364
0.000334502
0.000335638
0.000336781
0.000337923
0.000339071
0.000340219
0.000341365
0.000342517
0.000343669
0.000344827
0.000345984
0.000347139
0.000348301
0.000349463
0.00035063
0.000351796
0.000352962
0.000354133
0.000355305
0.00035648
0.00035766
0.000358839
0.000360017
0.0003612
0.000362384
0.000363574
0.000364762
0.00036595
0.000367143
0.000368336
0.000369535
0.000370733
0.00037193
0.000373133
0.000374336
0.000375545
0.000376752
0.000377959
0.000379171
0.000380384
0.000381602
0.00038282
0.000384036
0.000385258
0.00038648
0.000387708
0.000388935
0.000390161
0.000391392
0.000392624
0.000393861
0.000395098
0.000396333
0.000397574
0.000398816
0.000400063
0.000401309
0.000402554
0.000403805
0.000405056
0.000406312
0.000407568
0.000408822
0.000410083
0.000411343
0.00041261
0.000413875
0.000415139
0.000416408
0.00041768
0.000418954
0.000420232
0.00042151
0.000422786
0.000424069
0.000425352
0.00042664
0.000427927
0.000429213
0.000430505
0.000431798
0.000433095
0.000434392
0.000435688
0.00043699
0.000438292
0.000439599
0.000440906
0.000442211
0.000443522
0.000444834
0.000446151
0.000447467
0.000448782
0.000450103
0.000451424
0.00045275
0.000454076
0.000455401
0.000456731
0.000458061
0.000459398
0.000460733
0.000462067
0.000463407
0.000464747
0.000466093
0.000467438
0.000468782
0.000470131
0.000471481
0.000472837
0.000474191
0.000475545
0.000476903
0.000478264
0.000479627
0.000480994
0.000482361
0.000483727
0.000485099
0.000486471
0.000487848
0.000489225
0.0004906
0.000491981
0.000493363
0.00049475
0.000496136
0.000497521
0.000498912
0.000500303
0.000501699
0.000503095
0.00050449
0.00050589
0.000507291
0.000508697
0.000510102
0.000511507
0.000512917
0.000514327
0.000515743
0.000517157
0.000518571
0.000519991
0.000521411
0.000522836
0.000524261
0.000525684
0.000527113
0.000528543
0.000529978
0.000531412
0.000532845
0.000534283
0.000535722
0.000537167
0.000538611
0.000540053
0.000541502
0.00054295
0.000544405
0.000545857
0.00054731
0.000548767
0.000550227
0.000551689
0.000553155
0.000554621
0.000556085
0.000557556
0.000559027
0.000560503
0.000561978
0.000563452
0.000564932
0.000566413
0.000567899
0.000569383
0.000570867
0.000572357
0.000573847
0.000575342
0.000576837
0.00057833
0.000579829
0.000581329
0.000582834
0.000584338
0.000585841
0.00058735
0.000588859
0.000590373
0.000591887
0.0005934
0.000594918
0.000596437
0.000597961
0.000599484
0.000601006
0.000602534
0.000604063
0.000605596
0.000607129
0.000608661
0.000610199
0.000611736
0.00061328
0.000614822
0.000616364
0.00061791
0.000619459
0.00062101
0.000622565
0.000624121
0.000625674
0.000627234
0.000628794
0.00063036
0.000631924
0.000633488
0.000635057
0.000636626
0.000638201
0.000639775
0.000641348
0.000642927
0.000644506
0.000646091
0.000647675
0.000649257
0.000650846
0.000652434
0.000654029
0.000655622
0.000657214
0.000658812
0.00066041
0.000662014
0.000663617
0.000665219
0.000666827
0.000668434
0.000670048
0.00067166
0.000673272
0.000674889
0.000676506
0.000678129
0.000679751
0.000681373
0.000682999
0.000684626
0.000686259
0.000687891
0.000689521
0.000691158
0.000692794
0.000694436
0.000696077
0.000697718
0.000699363
0.000701011
0.000702661
0.000704315
0.000705969
0.000707621
0.00070928
0.000710938
0.000712603
0.000714266
0.000715928
0.000717596
0.000719265
0.000720939
0.000722611
0.000724283
0.000725961
0.000727639
0.000729322
0.000731005
0.000732686
0.000734373
0.000736061
0.000737754
0.000739446
0.000741137
0.000742834
0.000744531
0.000746234
0.000747935
0.000749636
0.000751342
0.000753049
0.000754761
0.000756472
0.000758183
0.000759899
0.000761615
0.000763337
0.000765058
0.000766777
0.000768503
0.000770229
0.00077196
0.00077369
0.00077542
0.000777155
0.000778891
0.000780631
0.000782374
0.000784117
0.000785859
0.000787607
0.000789354
0.000791108
0.00079286
0.000794612
0.000796369
0.000798127
0.00079989
0.000801652
0.000803413
0.00080518
0.000806947
0.000808719
0.000810491
0.000812262
0.000814038
0.000815815
0.000817597
0.000819378
0.000821159
0.000822945
0.000824731
0.000826523
0.000828314
0.000830104
0.000831899
0.000833695
0.000835496
0.000837297
0.000839096
0.000840902
0.000842707
0.000844518
0.000846328
0.000848137
0.000849952
0.000851767
0.000853588
0.000855407
0.000857226
0.00085905
0.000860875
0.000862705
0.000864534
0.000866363
0.000868196
0.000870032
0.000871869
0.000873712
0.000875554
0.000877394
0.000879241
0.000881087
0.00088294
0.000884791
0.000886641
0.000888497
0.000890354
0.000892215
0.000894076
0.000895936
0.000897802
0.000899668
0.000901539
0.00090341
0.000905279
0.000907154
0.00090903
0.000910911
0.000912791
0.00091467
0.000916555
0.00091844
0.000920331
0.00092222
0.000924109
0.000926003
0.000927898
0.000929798
0.000931698
0.000933596
0.0009355
0.000937404
0.000939314
0.000941223
0.000943131
0.000945044
0.000946958
0.000948878
0.000950796
0.000952714
0.000954636
0.000956561
0.000958488
0.000960419
0.00096235
0.00096428
0.000966216
0.000968152
0.000970093
0.000972034
0.000973973
0.000975919
0.000977864
0.000979815
0.000981765
0.000983714
0.000985669
0.000987624
0.000989585
0.000991545
0.000993503
0.000995468
0.000997432
0.000999403
0.00100137
0.00100334
0.00100531
0.00100729
0.00100927
0.00101125
0.00101323
0.00101521
0.00101719
0.00101918
0.00102117
0.00102316
0.00102515
0.00102714
0.00102914
0.00103114
0.00103314
0.00103514
0.00103714
0.00103915
0.00104116
0.00104317
0.00104518
0.00104719
0.00104921
0.00105123
0.00105324
0.00105527
0.00105729
0.00105932
0.00106135
0.00106338
0.0010654
0.00106744
0.00106947
0.00107151
0.00107355
0.00107559
0.00107764
0.00107968
0.00108173
0.00108378
0.00108583
0.00108788
0.00108993
0.00109199
0.00109405
0.00109611
0.00109817
0.00110024
0.0011023
0.00110437
0.00110644
0.00110851
0.00111059
0.00111266
0.00111474
0.00111682
0.0011189
0.00112098
0.00112307
0.00112516
0.00112725
0.00112934
0.00113143
0.00113353
0.00113562
0.00113772
0.00113982
0.00114192
0.00114403
0.00114614
0.00114824
0.00115035
0.00115247
0.00115458
0.0011567
0.00115882
0.00116094
0.00116306
0.00116519
0.00116732
0.00116944
0.00117157
0.0011737
0.00117584
0.00117798
0.00118012
0.00118225
0.0011844
0.00118654
0.00118869
0.00119084
0.00119298
0.00119513
0.00119729
0.00119945
0.0012016
0.00120376
0.00120592
0.00120808
0.00121025
0.00121242
0.00121458
0.00121676
0.00121893
0.0012211
0.00122328
0.00122546
0.00122764
0.00122982
0.00123201
0.00123419
0.00123638
0.00123857
0.00124076
0.00124296
0.00124515
0.00124735
0.00124955
0.00125175
0.00125395
0.00125616
0.00125836
0.00126057
0.00126278
0.001265
0.00126722
0.00126943
0.00127165
0.00127387
0.0012761
0.00127832
0.00128055
0.00128278
0.00128501
0.00128724
0.00128948
0.00129172
0.00129395
0.00129619
0.00129844
0.00130068
0.00130293
0.00130518
0.00130743
0.00130968
0.00131194
0.00131419
0.00131645
0.00131871
0.00132097
0.00132324
0.0013255
0.00132777
0.00133004
0.00133231
0.00133458
0.00133686
0.00133913
0.00134141
0.00134369
0.00134598
0.00134826
0.00135055
0.00135284
0.00135513
0.00135742
0.00135972
0.00136201
0.00136431
0.00136661
0.00136891
0.00137122
0.00137353
0.00137583
0.00137815
0.00138046
0.00138277
0.00138509
0.00138741
0.00138973
0.00139205
0.00139438
0.0013967
0.00139903
0.00140136
0.00140369
0.00140603
0.00140836
0.0014107
0.00141304
0.00141538
0.00141772
0.00142007
0.00142241
0.00142476
0.00142711
0.00142947
0.00143183
0.00143418
0.00143654
0.0014389
0.00144126
0.00144363
0.00144599
0.00144836
0.00145073
0.00145311
0.00145548
0.00145785
0.00146023
0.00146261
0.001465
0.00146738
0.00146976
0.00147215
0.00147454
0.00147693
0.00147933
0.00148172
0.00148412
0.00148652
0.00148892
0.00149132
0.00149373
0.00149613
0.00149855
0.00150096
0.00150337
0.00150579
0.0015082
0.00151062
0.00151304
0.00151547
0.00151789
0.00152032
0.00152275
0.00152518
0.00152761
0.00153005
0.00153248
0.00153492
0.00153736
0.0015398
0.00154225
0.00154469
0.00154714
0.00154959
0.00155204
0.0015545
0.00155695
0.00155941
0.00156187
0.00156433
0.00156679
0.00156926
0.00157173
0.00157419
0.00157667
0.00157914
0.00158161
0.00158409
0.00158657
0.00158905
0.00159153
0.00159402
0.0015965
0.00159899
0.00160148
0.00160398
0.00160647
0.00160897
0.00161147
0.00161397
0.00161647
0.00161898
0.00162148
0.00162399
0.0016265
0.00162901
0.00163153
0.00163404
0.00163656
0.00163908
0.0016416
0.00164413
0.00164665
0.00164918
0.00165171
0.00165424
0.00165677
0.00165931
0.00166184
0.00166438
0.00166693
0.00166947
0.00167201
0.00167456
0.00167711
0.00167966
0.00168221
0.00168476
0.00168732
0.00168988
0.00169244
0.001695
0.00169757
0.00170013
0.0017027
0.00170527
0.00170784
0.00171041
0.00171299
0.00171557
0.00171815
0.00172073
0.00172331
0.0017259
0.00172848
0.00173107
0.00173367
0.00173626
0.00173886
0.00174145
0.00174405
0.00174666
0.00174926
0.00175186
0.00175447
0.00175708
0.00175969
0.00176231
0.00176492
0.00176754
0.00177015
0.00177278
0.0017754
0.00177802
0.00178065
0.00178328
0.00178591
0.00178854
0.00179117
0.00179381
0.00179645
0.00179909
0.00180173
0.00180437
0.00180702
0.00180966
0.00181232
0.00181497
0.00181762
0.00182027
0.00182293
0.00182559
0.00182825
0.00183091
0.00183358
0.00183624
0.00183892
0.00184159
0.00184426
0.00184693
0.00184961
0.00185229
0.00185497
0.00185765
0.00186034
0.00186302
0.00186571
0.0018684
0.0018711
0.00187379
0.00187649
0.00187918
0.00188189
0.00188459
0.00188729
0.00189
0.0018927
0.00189542
0.00189813
0.00190084
0.00190356
0.00190627
0.00190899
0.00191172
0.00191444
0.00191716
0.00191989
0.00192262
0.00192535
0.00192808
0.00193082
0.00193355
0.00193629
0.00193903
0.00194177
0.00194452
0.00194726
0.00195002
0.00195277
0.00195552
0.00195827
0.00196103
0.00196379
0.00196655
0.0019693
0.00197207
0.00197483
0.0019776
0.00198037
0.00198314
0.00198591
0.00198869
0.00199147
0.00199425
0.00199703
0.00199981
0.0020026
0.00200539
0.00200818
0.00201097
0.00201376
0.00201656
0.00201935
0.00202215
0.00202496
0.00202776
0.00203056
0.00203337
0.00203618
0.00203899
0.0020418
0.00204461
0.00204743
0.00205025
0.00205307
0.00205589
0.00205871
0.00206154
0.00206437
0.0020672
0.00207003
0.00207286
0.0020757
0.00207854
0.00208138
0.00208422
0.00208706
0.0020899
0.00209275
0.0020956
0.00209845
0.0021013
0.00210416
0.00210702
0.00210988
0.00211273
0.0021156
0.00211846
0.00212133
0.0021242
0.00212707
0.00212994
0.00213282
0.00213569
0.00213857
0.00214145
0.00214433
0.00214722
0.00215011
0.002153
0.00215589
0.00215878
0.00216167
0.00216457
0.00216747
0.00217037
0.00217327
0.00217617
0.00217907
0.00218198
0.00218489
0.0021878
0.00219072
0.00219363
0.00219655
0.00219947
0.00220239
0.00220531
0.00220823
0.00221116
0.00221409
0.00221702
0.00221995
0.00222289
0.00222583
0.00222876
0.0022317
0.00223464
0.00223759
0.00224054
0.00224348
0.00224643
0.00224938
0.00225234
0.00225529
0.00225825
0.00226121
0.00226417
0.00226713
0.0022701
0.00227307
0.00227604
0.00227901
0.00228198
0.00228496
0.00228794
0.00229092
0.0022939
0.00229688
0.00229986
0.00230285
0.00230584
0.00230883
0.00231182
0.00231482
0.00231782
0.00232082
0.00232381
0.00232682
0.00232982
0.00233283
0.00233584
0.00233884
0.00234186
0.00234487
0.00234789
0.00235091
0.00235392
0.00235695
0.00235997
0.002363
0.00236602
0.00236905
0.00237208
0.00237512
0.00237815
0.00238119
0.00238423
0.00238727
0.00239031
0.00239336
0.0023964
0.00239945
0.0024025
0.00240555
0.00240861
0.00241166
0.00241472
0.00241778
0.00242084
0.00242391
0.00242698
0.00243005
0.00243311
0.00243619
0.00243926
0.00244234
0.00244542
0.00244849
0.00245158
0.00245466
0.00245775
0.00246084
0.00246392
0.00246702
0.00247011
0.00247321
0.0024763
0.0024794
0.0024825
0.00248561
0.00248871
0.00249182
0.00249493
0.00249804
0.00250115
0.00250427
0.00250738
0.0025105
0.00251362
0.00251674
0.00251987
0.002523
0.00252612
0.00252925
0.00253238
0.00253552
0.00253865
0.00254179
0.00254493
0.00254807
0.00255122
0.00255436
0.00255751
0.00256066
0.00256381
0.00256696
0.00257012
0.00257328
0.00257643
0.0025796
0.00258276
0.00258593
0.0025891
0.00259226
0.00259543
0.00259861
0.00260178
0.00260496
0.00260814
0.00261132
0.0026145
0.00261769
0.00262087
0.00262406
0.00262725
0.00263044
0.00263364
0.00263684
0.00264003
0.00264323
0.00264643
0.00264964
0.00265285
0.00265605
0.00265926
0.00266247
0.00266569
0.0026689
0.00267212
0.00267534
0.00267856
0.00268178
0.00268501
0.00268823
0.00269146
0.00269469
0.00269793
0.00270116
0.0027044
0.00270764
0.00271087
0.00271412
0.00271736
0.00272061
0.00272386
0.00272711
0.00273036
0.00273362
0.00273687
0.00274013
0.00274339
0.00274665
0.00274992
0.00275318
0.00275645
0.00275972
0.00276299
0.00276627
0.00276954
0.00277282
0.0027761
0.00277938
0.00278267
0.00278595
0.00278924
0.00279253
0.00279582
0.00279911
0.00280241
0.0028057
0.002809
0.0028123
0.00281561
0.00281891
0.00282221
0.00282552
0.00282883
0.00283215
0.00283546
0.00283878
0.00284209
0.00284541
0.00284874
0.00285206
0.00285538
0.00285871
0.00286204
0.00286538
0.00286871
0.00287204
0.00287538
0.00287872
0.00288206
0.00288541
0.00288875
0.0028921
0.00289545
0.0028988
0.00290216
0.00290551
0.00290887
0.00291223
0.00291559
0.00291895
0.00292232
0.00292568
0.00292905
0.00293242
0.0029358
0.00293917
0.00294254
0.00294592
0.0029493
0.00295269
0.00295607
0.00295946
0.00296284
0.00296623
0.00296963
0.00297302
0.00297641
0.00297981
0.00298321
0.00298662
0.00299002
0.00299342
0.00299683
0.00300024
0.00300365
0.00300707
0.00301048
0.00301389
0.00301731
0.00302074
0.00302416
0.00302758
0.00303101
0.00303443
0.00303787
0.0030413
0.00304473
0.00304817
0.00305161
0.00305505
0.00305849
0.00306194
0.00306538
0.00306883
0.00307228
0.00307573
0.00307919
0.00308264
0.0030861
0.00308956
0.00309302
0.00309649
0.00309995
0.00310342
0.00310689
0.00311036
0.00311384
0.00311731
0.00312079
0.00312426
0.00312775
0.00313123
0.00313471
0.0031382
0.00314169
0.00314518
0.00314868
0.00315217
0.00315566
0.00315916
0.00316266
0.00316617
0.00316967
0.00317318
0.00317668
0.00318019
0.00318371
0.00318722
0.00319073
0.00319425
0.00319777
0.00320129
0.00320481
0.00320834
0.00321187
0.0032154
0.00321893
0.00322247
0.003226
0.00322954
0.00323308
0.00323662
0.00324016
0.00324371
0.00324725
0.0032508
0.00325436
0.00325791
0.00326146
0.00326502
0.00326858
0.00327214
0.0032757
0.00327927
0.00328283
0.0032864
0.00328997
0.00329355
0.00329712
0.00330069
0.00330427
0.00330785
0.00331143
0.00331502
0.0033186
0.00332219
0.00332578
0.00332937
0.00333296
0.00333656
0.00334016
0.00334376
0.00334736
0.00335096
0.00335456
0.00335817
0.00336178
0.00336539
0.003369
0.00337262
0.00337623
0.00337985
0.00338347
0.00338709
0.00339072
0.00339434
0.00339797
0.00340161
0.00340524
0.00340887
0.00341251
0.00341614
0.00341979
0.00342343
0.00342707
0.00343072
0.00343437
0.00343802
0.00344167
0.00344532
0.00344898
0.00345263
0.0034563
0.00345996
0.00346362
0.00346728
0.00347095
0.00347462
0.00347829
0.00348196
0.00348564
0.00348931
0.003493
0.00349668
0.00350036
0.00350404
0.00350773
0.00351142
0.00351511
0.0035188
0.00352249
0.00352619
0.00352989
0.00353359
0.00353729
0.00354099
0.0035447
0.00354841
0.00355212
0.00355582
0.00355954
0.00356325
0.00356697
0.00357069
0.00357442
0.00357814
0.00358186
0.00358559
0.00358932
0.00359305
0.00359678
0.00360052
0.00360426
0.003608
0.00361174
0.00361548
0.00361923
0.00362297
0.00362672
0.00363047
0.00363422
0.00363798
0.00364173
0.00364549
0.00364926
0.00365301
0.00365678
0.00366054
0.00366431
0.00366808
0.00367185
0.00367563
0.0036794
0.00368318
0.00368696
0.00369074
0.00369452
0.00369831
0.0037021
0.00370589
0.00370968
0.00371347
0.00371726
0.00372106
0.00372486
0.00372866
0.00373246
0.00373627
0.00374008
0.00374388
0.00374769
0.0037515
0.00375532
0.00375913
0.00376296
0.00376678
0.0037706
0.00377442
0.00377825
0.00378208
0.00378591
0.00378974
0.00379357
0.00379741
0.00380125
0.00380509
0.00380893
0.00381277
0.00381662
0.00382047
0.00382432
0.00382816
0.00383202
0.00383587
0.00383973
0.00384359
0.00384745
0.00385131
0.00385518
0.00385905
0.00386292
0.00386678
0.00387066
0.00387453
0.00387841
0.00388229
0.00388616
0.00389005
0.00389393
0.00389782
0.00390171
0.00390559
0.00390949
0.00391338
0.00391728
0.00392117
0.00392507
0.00392897
0.00393288
0.00393678
0.00394069
0.0039446
0.00394851
0.00395243
0.00395634
0.00396026
0.00396418
0.0039681
0.00397202
0.00397595
0.00397988
0.00398381
0.00398773
0.00399167
0.0039956
0.00399954
0.00400348
0.00400742
0.00401136
0.0040153
0.00401925
0.0040232
0.00402715
0.0040311
0.00403506
0.00403901
0.00404297
0.00404693
0.00405089
0.00405485
0.00405882
0.00406279
0.00406676
0.00407073
0.0040747
0.00407868
0.00408266
0.00408663
0.00409061
0.00409459
0.00409858
0.00410257
0.00410655
0.00411055
0.00411454
0.00411853
0.00412253
0.00412653
0.00413053
0.00413453
0.00413853
0.00414254
0.00414655
0.00415056
0.00415457
0.00415859
0.0041626
0.00416662
0.00417064
0.00417466
0.00417869
0.00418272
0.00418674
0.00419077
0.0041948
0.00419884
0.00420287
0.00420691
0.00421095
0.00421499
0.00421903
0.00422308
0.00422713
0.00423117
0.00423522
0.00423928
0.00424333
0.00424739
0.00425145
0.00425551
0.00425957
0.00426364
0.0042677
0.00427177
0.00427584
0.00427991
0.00428399
0.00428806
0.00429214
0.00429622
0.0043003
0.00430438
0.00430847
0.00431255
0.00431664
0.00432074
0.00432483
0.00432893
0.00433303
0.00433712
0.00434123
0.00434533
0.00434944
0.00435354
0.00435765
0.00436176
0.00436587
0.00436999
0.00437411
0.00437823
0.00438235
0.00438647
0.0043906
0.00439472
0.00439885
0.00440298
0.00440711
0.00441125
0.00441539
0.00441952
0.00442366
0.0044278
0.00443195
0.0044361
0.00444024
0.00444439
0.00444854
0.0044527
0.00445685
0.00446101
0.00446517
0.00446933
0.00447349
0.00447766
0.00448182
0.00448599
0.00449016
0.00449434
0.00449851
0.00450269
0.00450687
0.00451104
0.00451523
0.00451941
0.0045236
0.00452779
0.00453198
0.00453617
0.00454037
0.00454456
0.00454876
0.00455296
0.00455716
0.00456137
0.00456558
0.00456978
0.00457399
0.0045782
0.00458242
0.00458664
0.00459085
0.00459507
0.00459929
0.00460352
0.00460774
0.00461197
0.0046162
0.00462043
0.00462466
0.0046289
0.00463313
0.00463737
0.00464161
0.00464586
0.0046501
0.00465435
0.0046586
0.00466285
0.0046671
0.00467135
0.00467561
0.00467987
0.00468413
0.00468839
0.00469265
0.00469692
0.00470119
0.00470545
0.00470973
0.004714
0.00471827
0.00472255
0.00472683
0.00473111
0.0047354
0.00473969
0.00474397
0.00474826
0.00475255
0.00475685
0.00476114
0.00476544
0.00476974
0.00477404
0.00477835
0.00478265
0.00478695
0.00479126
0.00479557
0.00479989
0.0048042
0.00480852
0.00481284
0.00481716
0.00482148
0.00482581
0.00483013
0.00483446
0.00483879
0.00484312
0.00484746
0.00485179
0.00485613
0.00486047
0.00486481
0.00486915
0.0048735
0.00487784
0.00488219
0.00488655
0.0048909
0.00489525
0.00489961
0.00490397
0.00490833
0.00491269
0.00491706
0.00492142
0.00492579
0.00493016
0.00493454
0.00493891
0.00494328
0.00494766
0.00495204
0.00495643
0.00496081
0.0049652
0.00496959
0.00497397
0.00497837
0.00498276
0.00498716
0.00499156
0.00499596
0.00500036
0.00500476
0.00500917
0.00501358
0.00501798
0.0050224
0.00502681
0.00503122
0.00503564
0.00504006
0.00504449
0.00504891
0.00505333
0.00505776
0.00506219
0.00506662
0.00507105
0.00507548
0.00507992
0.00508436
0.0050888
0.00509324
0.00509769
0.00510213
0.00510658
0.00511103
0.00511548
0.00511993
0.00512439
0.00512885
0.00513331
0.00513777
0.00514223
0.0051467
0.00515117
0.00515564
0.00516011
0.00516458
0.00516906
0.00517354
0.00517801
0.0051825
0.00518698
0.00519146
0.00519595
0.00520044
0.00520493
0.00520943
0.00521392
0.00521842
0.00522292
0.00522742
0.00523192
0.00523642
0.00524093
0.00524544
0.00524995
0.00525446
0.00525898
0.00526349
0.00526801
0.00527253
0.00527705
0.00528157
0.0052861
0.00529063
0.00529516
0.00529969
0.00530422
0.00530876
0.00531329
0.00531784
0.00532238
0.00532692
0.00533146
0.00533601
0.00534056
0.00534511
0.00534966
0.00535422
0.00535877
0.00536333
0.00536789
0.00537245
0.00537702
0.00538158
0.00538615
0.00539073
0.0053953
0.00539987
0.00540445
0.00540902
0.00541361
0.00541819
0.00542277
0.00542736
0.00543195
0.00543654
0.00544113
0.00544572
0.00545032
0.00545491
0.00545952
0.00546412
0.00546872
0.00547332
0.00547793
0.00548254
0.00548715
0.00549176
0.00549638
0.005501
0.00550562
0.00551024
0.00551486
0.00551948
0.00552411
0.00552874
0.00553337
0.005538
0.00554263
0.00554727
0.00555191
0.00555655
0.00556119
0.00556583
0.00557048
0.00557513
0.00557978
0.00558443
0.00558908
0.00559374
0.00559839
0.00560306
0.00560772
0.00561238
0.00561705
0.00562171
0.00562638
0.00563106
0.00563573
0.0056404
0.00564508
0.00564976
0.00565444
0.00565912
0.00566381
0.00566849
0.00567319
0.00567788
0.00568257
0.00568726
0.00569196
0.00569666
0.00570136
0.00570606
0.00571076
0.00571547
0.00572018
0.00572489
0.0057296
0.00573431
0.00573903
0.00574375
0.00574847
0.00575318
0.00575791
0.00576263
0.00576736
0.00577209
0.00577682
0.00578155
0.00578629
0.00579103
0.00579577
0.0058005
0.00580525
0.00580999
0.00581474
0.00581949
0.00582424
0.00582899
0.00583374
0.0058385
0.00584326
0.00584802
0.00585278
0.00585755
0.00586231
0.00586708
0.00587185
0.00587662
0.0058814
0.00588617
0.00589095
0.00589573
0.00590051
0.0059053
0.00591008
0.00591487
0.00591966
0.00592445
0.00592924
0.00593404
0.00593884
0.00594364
0.00594844
0.00595324
0.00595804
0.00596285
0.00596766
0.00597247
0.00597728
0.0059821
0.00598692
0.00599173
0.00599655
0.00600137
0.0060062
0.00601103
0.00601585
0.00602068
0.00602551
0.00603035
0.00603518
0.00604002
0.00604486
0.0060497
0.00605454
0.00605939
0.00606424
0.00606909
0.00607394
0.00607879
0.00608365
0.00608851
0.00609337
0.00609823
0.00610309
0.00610795
0.00611282
0.00611769
0.00612256
0.00612744
0.00613231
0.00613719
0.00614207
0.00614695
0.00615183
0.00615671
0.0061616
0.00616649
0.00617138
0.00617627
0.00618116
0.00618606
0.00619096
0.00619586
0.00620076
0.00620566
0.00621057
0.00621548
0.00622038
0.0062253
0.00623021
0.00623513
0.00624004
0.00624496
0.00624988
0.0062548
0.00625973
0.00626466
0.00626958
0.00627451
0.00627945
0.00628438
0.00628932
0.00629426
0.0062992
0.00630414
0.00630909
0.00631404
0.00631899
0.00632393
0.00632889
0.00633384
0.0063388
0.00634376
0.00634872
0.00635368
0.00635864
0.00636361
0.00636858
0.00637354
0.00637852
0.00638349
0.00638847
0.00639345
0.00639842
0.0064034
0.00640839
0.00641338
0.00641836
0.00642335
0.00642834
0.00643333