/*--------------------------------*- C++ -*----------------------------------*\
| =========                 |                                                 |
| \\      /  F ield         | OpenFOAM: The Open Source CFD Toolbox           |
|  \\    /   O peration     | Version:  2206                                  |
|   \\  /    A nd           | Website:  www.openfoam.com                      |
|    \\/     M anipulation  |                                                 |
\*---------------------------------------------------------------------------*/
FoamFile
{
    version     2.0;
    format      ascii;
    arch        "LSB;label=32;scalar=64";
    class       surfaceScalarField;
    location    "138";
    object      phi;
}
// * * * * * * * * * * * * * * * * * * * * * * * * * * * * * * * * * * * * * //

dimensions      [0 3 -1 0 0 0 0];

oriented        oriented;

internalField   nonuniform List<scalar> 
94990
(
-4.91908e-16
5.52732e-16
-1.03834e-15
5.60786e-16
-2.90476e-15
1.87001e-15
-5.58441e-15
2.67772e-15
-7.57803e-15
2.0056e-15
-9.47214e-15
1.88902e-15
-1.42201e-14
4.75503e-15
-1.96101e-14
5.3856e-15
-2.61316e-14
6.52584e-15
-2.99792e-14
3.84384e-15
-3.38539e-14
3.87756e-15
-4.23026e-14
8.44543e-15
-5.13368e-14
9.03676e-15
-6.15733e-14
1.02336e-14
-6.73738e-14
5.80258e-15
-7.31506e-14
5.77443e-15
-8.53738e-14
1.22249e-14
-9.79736e-14
1.25977e-14
-1.1202e-13
1.4048e-14
-1.19644e-13
7.62174e-15
-1.27516e-13
7.87302e-15
-1.43223e-13
1.57056e-14
-1.59899e-13
1.66772e-14
-1.77519e-13
1.76185e-14
-1.959e-13
1.83822e-14
-2.06227e-13
1.03257e-14
-2.16226e-13
9.99941e-15
-2.36934e-13
2.07068e-14
-2.57635e-13
2.07019e-14
-2.80082e-13
2.24458e-14
-2.92114e-13
1.20328e-14
-3.04195e-13
1.20806e-14
-3.2854e-13
2.43449e-14
-3.52924e-13
2.43832e-14
-3.79063e-13
2.61396e-14
-3.93058e-13
1.39942e-14
-4.07046e-13
1.39889e-14
-4.35147e-13
2.81004e-14
-4.63132e-13
2.7985e-14
-4.93019e-13
2.98869e-14
-5.08939e-13
1.59197e-14
-5.2486e-13
1.5921e-14
-5.567e-13
3.18402e-14
-5.88298e-13
3.15969e-14
-6.21925e-13
3.36279e-14
-6.39775e-13
1.78491e-14
-6.57626e-13
1.7851e-14
-6.93207e-13
3.5581e-14
-7.28415e-13
3.52086e-14
-7.65784e-13
3.73685e-14
-7.85563e-13
1.97791e-14
-8.05344e-13
1.97803e-14
-8.44666e-13
3.93226e-14
-8.83486e-13
3.88195e-14
-9.24596e-13
4.11098e-14
-9.46305e-13
2.17088e-14
-9.68014e-13
2.17096e-14
-1.01108e-12
4.30647e-14
-1.05351e-12
4.24288e-14
-1.09836e-12
4.48541e-14
-1.122e-12
2.36332e-14
-1.14564e-12
2.36474e-14
-1.19244e-12
4.67931e-14
-1.2385e-12
4.60597e-14
-1.28706e-12
4.85648e-14
-1.31267e-12
2.56096e-14
-1.33818e-12
2.55055e-14
-1.38882e-12
5.06438e-14
-1.43832e-12
4.95034e-14
-1.49088e-12
5.25618e-14
-1.51803e-12
2.71487e-14
-1.54607e-12
2.80319e-14
-1.59955e-12
5.34831e-14
-1.65423e-12
5.46829e-14
-1.70986e-12
5.56262e-14
-1.76602e-12
5.61574e-14
-1.7965e-12
3.04872e-14
-1.82603e-12
2.95241e-14
-1.88525e-12
5.92228e-14
-1.94285e-12
5.76042e-14
-2.00372e-12
6.08676e-14
-2.03548e-12
3.17612e-14
-2.06738e-12
3.18931e-14
-2.13004e-12
6.26692e-14
-2.19146e-12
6.14131e-14
-2.25593e-12
6.4476e-14
-2.28971e-12
3.37798e-14
-2.32348e-12
3.37631e-14
-2.38993e-12
6.64504e-14
-2.45492e-12
6.49972e-14
-2.52316e-12
6.82354e-14
-2.55886e-12
3.56972e-14
-2.59456e-12
3.57011e-14
-2.66474e-12
7.01859e-14
-2.73336e-12
6.86123e-14
-2.80533e-12
7.19739e-14
-2.84296e-12
3.76286e-14
-2.88059e-12
3.76297e-14
-2.95452e-12
7.39277e-14
-3.02674e-12
7.22232e-14
-3.10245e-12
7.57148e-14
-3.14201e-12
3.95589e-14
-3.18157e-12
3.95579e-14
-3.25924e-12
7.76712e-14
-3.33507e-12
7.58304e-14
-3.41453e-12
7.94621e-14
-3.45601e-12
4.14789e-14
-3.49752e-12
4.15025e-14
-3.5789e-12
8.13896e-14
-3.65838e-12
7.94762e-14
-3.74153e-12
8.31505e-14
-3.78502e-12
4.34887e-14
-3.82833e-12
4.33102e-14
-3.91365e-12
8.5316e-14
-3.99645e-12
8.28059e-14
-4.08377e-12
8.7319e-14
-4.12854e-12
4.47695e-14
-4.17477e-12
4.62263e-14
-4.26234e-12
8.75731e-14
-4.35132e-12
8.89811e-14
-4.44125e-12
8.99243e-14
-4.53149e-12
9.02477e-14
-4.58017e-12
4.86817e-14
-4.62732e-12
4.71449e-14
-4.7213e-12
9.39796e-14
-4.81221e-12
9.09068e-14
-4.90775e-12
9.55397e-14
-4.95731e-12
4.95664e-14
-5.00708e-12
4.97719e-14
-5.10434e-12
9.72548e-14
-5.19917e-12
9.48293e-14
-5.29824e-12
9.90728e-14
-5.34988e-12
5.1635e-14
-5.40148e-12
5.16087e-14
-5.50254e-12
1.01058e-13
-5.60094e-12
9.83989e-14
-5.70378e-12
1.02842e-13
-5.75733e-12
5.3546e-14
-5.81088e-12
5.35509e-14
-5.91567e-12
1.04791e-13
-6.01769e-12
1.02016e-13
-6.12426e-12
1.06579e-13
-6.17974e-12
5.54783e-14
-6.23522e-12
5.54787e-14
-6.34375e-12
1.08533e-13
-6.44938e-12
1.05626e-13
-6.5597e-12
1.10321e-13
-6.61711e-12
5.74072e-14
-6.67452e-12
5.74092e-14
-6.78679e-12
1.12273e-13
-6.89603e-12
1.09238e-13
-7.01009e-12
1.1406e-13
-7.06943e-12
5.9339e-14
-7.12876e-12
5.93359e-14
-7.24478e-12
1.16019e-13
-7.35763e-12
1.12843e-13
-7.47544e-12
1.17812e-13
-7.53669e-12
6.12537e-14
-7.59798e-12
6.1288e-14
-7.7177e-12
1.19726e-13
-7.83421e-12
1.16505e-13
-7.95568e-12
1.21475e-13
-8.01898e-12
6.33009e-14
-8.08202e-12
6.30398e-14
-8.20576e-12
1.23736e-13
-8.32547e-12
1.19708e-13
-8.4513e-12
1.25834e-13
-8.5156e-12
6.42952e-14
-8.58199e-12
6.6388e-14
-8.70733e-12
1.25348e-13
-8.83432e-12
1.26987e-13
-8.96225e-12
1.2793e-13
-9.09027e-12
1.28024e-13
-9.15912e-12
6.88432e-14
-9.22579e-12
6.66708e-14
-9.35828e-12
1.32494e-13
-9.48609e-12
1.2781e-13
-9.62005e-12
1.3396e-13
-9.68935e-12
6.92967e-14
-9.75893e-12
6.95834e-14
-9.89451e-12
1.35579e-13
-1.00264e-11
1.31858e-13
-1.01638e-11
1.3741e-13
-1.02352e-11
7.14204e-14
-1.03066e-11
7.13838e-14
-1.0446e-11
1.39407e-13
-1.05814e-11
1.35412e-13
-1.07226e-11
1.41189e-13
-1.07959e-11
7.33247e-14
-1.08692e-11
7.33303e-14
-1.10124e-11
1.43137e-13
-1.11514e-11
1.3903e-13
-1.12963e-11
1.44925e-13
-1.13716e-11
7.52572e-14
-1.14469e-11
7.52583e-14
-1.15937e-11
1.46878e-13
-1.17364e-11
1.42641e-13
-1.1885e-11
1.48665e-13
-1.19622e-11
7.7189e-14
-1.20394e-11
7.71845e-14
-1.219e-11
1.50625e-13
-1.23363e-11
1.46244e-13
-1.24887e-11
1.52419e-13
-1.25678e-11
7.90996e-14
-1.26469e-11
7.91431e-14
-1.28013e-11
1.54322e-13
-1.29512e-11
1.49921e-13
-1.31072e-11
1.56061e-13
-1.31884e-11
8.118e-14
-1.32693e-11
8.08448e-14
-1.34277e-11
1.58408e-13
-1.35807e-11
1.53011e-13
-1.37413e-11
1.60591e-13
-1.38232e-11
8.19162e-14
-1.39078e-11
8.45824e-14
-1.40672e-11
1.59438e-13
-1.42285e-11
1.61285e-13
-1.43907e-11
1.62228e-13
-1.45528e-11
1.62114e-13
-1.46399e-11
8.70379e-14
-1.47242e-11
8.42915e-14
-1.48914e-11
1.6725e-13
-1.50525e-11
1.61112e-13
-1.52212e-11
1.68632e-13
-1.53083e-11
8.71019e-14
-1.53957e-11
8.74622e-14
-1.55659e-11
1.70165e-13
-1.57312e-11
1.65274e-13
-1.59032e-11
1.72006e-13
-1.59925e-11
8.92758e-14
-1.60817e-11
8.92293e-14
-1.62557e-11
1.74014e-13
-1.64245e-11
1.68813e-13
-1.66003e-11
1.75795e-13
-1.66915e-11
9.11736e-14
-1.67827e-11
9.11802e-14
-1.69604e-11
1.77741e-13
-1.71328e-11
1.72434e-13
-1.73124e-11
1.7953e-13
-1.74055e-11
9.31074e-14
-1.74986e-11
9.31071e-14
-1.76801e-11
1.81484e-13
-1.78561e-11
1.76044e-13
-1.80394e-11
1.83272e-13
-1.81344e-11
9.50363e-14
-1.82294e-11
9.50376e-14
-1.84147e-11
1.85224e-13
-1.85943e-11
1.79656e-13
-1.87813e-11
1.87012e-13
-1.88783e-11
9.69689e-14
-1.89753e-11
9.69628e-14
-1.91642e-11
1.88972e-13
-1.93475e-11
1.83257e-13
-1.95383e-11
1.90768e-13
-1.96371e-11
9.8875e-14
-1.97361e-11
9.89282e-14
-1.99287e-11
1.92659e-13
-2.01157e-11
1.8695e-13
-2.03101e-11
1.94386e-13
-2.04111e-11
1.00992e-13
-2.05116e-11
1.00575e-13
-2.07085e-11
1.96828e-13
-2.08984e-11
1.89914e-13
-2.10975e-11
1.99105e-13
-2.11989e-11
1.01442e-13
-2.13037e-11
1.04744e-13
-2.15009e-11
1.97214e-13
-2.17002e-11
1.99291e-13
-2.19004e-11
2.00234e-13
-2.21003e-11
1.99889e-13
-2.22075e-11
1.072e-13
-2.23113e-11
1.03817e-13
-2.25171e-11
2.05765e-13
-2.27151e-11
1.98015e-13
-2.29221e-11
2.07053e-13
-2.3029e-11
1.06832e-13
-2.31362e-11
1.07274e-13
-2.33447e-11
2.08489e-13
-2.3547e-11
2.02303e-13
-2.37574e-11
2.10343e-13
-2.38664e-11
1.09062e-13
-2.39754e-11
1.09004e-13
-2.41878e-11
2.12363e-13
-2.43936e-11
2.05826e-13
-2.46078e-11
2.14143e-13
-2.47187e-11
1.10952e-13
-2.48297e-11
1.1096e-13
-2.50458e-11
2.16087e-13
-2.52552e-11
2.09448e-13
-2.54731e-11
2.17877e-13
-2.5586e-11
1.12887e-13
-2.56989e-11
1.12887e-13
-2.59187e-11
2.19829e-13
-2.61318e-11
2.13059e-13
-2.63534e-11
2.21617e-13
-2.64682e-11
1.14819e-13
-2.6583e-11
1.14811e-13
-2.68066e-11
2.23578e-13
-2.70232e-11
2.16659e-13
-2.72486e-11
2.25376e-13
-2.73653e-11
1.16721e-13
-2.74821e-11
1.16783e-13
-2.77094e-11
2.27255e-13
-2.79297e-11
2.20366e-13
-2.81587e-11
2.28971e-13
-2.82776e-11
1.18871e-13
-2.8396e-11
1.1838e-13
-2.86275e-11
2.315e-13
-2.88507e-11
2.23216e-13
-2.90845e-11
2.33862e-13
-2.92036e-11
1.19063e-13
-2.93265e-11
1.22938e-13
-2.95579e-11
2.31304e-13
-2.97914e-11
2.33589e-13
-3.0026e-11
2.34532e-13
-3.026e-11
2.3398e-13
-3.03853e-11
1.25395e-13
-3.05068e-11
1.21438e-13
-3.07473e-11
2.40521e-13
-3.09786e-11
2.31317e-13
-3.12203e-11
2.41725e-13
-3.1345e-11
1.24637e-13
-3.14701e-11
1.25153e-13
-3.17132e-11
2.43074e-13
-3.19489e-11
2.35719e-13
-3.21939e-11
2.4494e-13
-3.23208e-11
1.26917e-13
-3.24476e-11
1.26849e-13
-3.26946e-11
2.4697e-13
-3.29338e-11
2.39227e-13
-3.31826e-11
2.4875e-13
-3.33114e-11
1.28801e-13
-3.34402e-11
1.2881e-13
-3.36909e-11
2.50691e-13
-3.39337e-11
2.42852e-13
-3.41862e-11
2.52482e-13
-3.4317e-11
1.30737e-13
-3.44477e-11
1.30735e-13
-3.47021e-11
2.54435e-13
-3.49486e-11
2.46461e-13
-3.52048e-11
2.56224e-13
-3.53375e-11
1.32665e-13
-3.54701e-11
1.32666e-13
-3.57283e-11
2.58175e-13
-3.59784e-11
2.50074e-13
-3.62384e-11
2.59962e-13
-3.63729e-11
1.34599e-13
-3.65075e-11
1.34589e-13
-3.67695e-11
2.61925e-13
-3.70231e-11
2.53671e-13
-3.72869e-11
2.63725e-13
-3.74234e-11
1.36496e-13
-3.75599e-11
1.36569e-13
-3.78255e-11
2.65592e-13
-3.80829e-11
2.57395e-13
-3.83502e-11
2.67296e-13
-3.84889e-11
1.38683e-13
-3.8627e-11
1.38109e-13
-3.88969e-11
2.6992e-13
-3.9157e-11
2.60119e-13
-3.94294e-11
2.72377e-13
-3.9568e-11
1.38589e-13
-3.97111e-11
1.431e-13
-3.99802e-11
2.69079e-13
-4.02518e-11
2.71595e-13
-4.05243e-11
2.72538e-13
-4.07961e-11
2.71756e-13
-4.09416e-11
1.45557e-13
-4.10826e-11
1.40963e-13
-4.13616e-11
2.79035e-13
-4.16298e-11
2.6822e-13
-4.191e-11
2.80145e-13
-4.20544e-11
1.44368e-13
-4.21993e-11
1.44964e-13
-4.24807e-11
2.81399e-13
-4.27535e-11
2.72748e-13
-4.30367e-11
2.83277e-13
-4.31834e-11
1.46703e-13
-4.33301e-11
1.46624e-13
-4.36154e-11
2.85319e-13
-4.38916e-11
2.7624e-13
-4.41787e-11
2.87097e-13
-4.43273e-11
1.4858e-13
-4.44759e-11
1.48589e-13
-4.47649e-11
2.89037e-13
-4.50448e-11
2.79866e-13
-4.53356e-11
2.90828e-13
-4.54861e-11
1.50516e-13
-4.56367e-11
1.50515e-13
-4.59294e-11
2.9278e-13
-4.62129e-11
2.83477e-13
-4.65075e-11
2.94568e-13
-4.66599e-11
1.52449e-13
-4.68124e-11
1.52438e-13
-4.71089e-11
2.96531e-13
-4.7396e-11
2.87072e-13
-4.76943e-11
2.98333e-13
-4.78486e-11
1.54342e-13
-4.80031e-11
1.54424e-13
-4.83033e-11
3.00188e-13
-4.85941e-11
2.90811e-13
-4.88959e-11
3.01882e-13
-4.90525e-11
1.56563e-13
-4.92084e-11
1.55914e-13
-4.9513e-11
3.04592e-13
-4.98064e-11
2.93422e-13
-5.01136e-11
3.07134e-13
-5.02698e-11
1.56211e-13
-5.04311e-11
1.61294e-13
-5.07342e-11
3.03168e-13
-5.10401e-11
3.05893e-13
-5.1347e-11
3.06836e-13
-5.16528e-11
3.05846e-13
-5.18166e-11
1.63752e-13
-5.19752e-11
1.58584e-13
-5.22889e-11
3.13792e-13
-5.25905e-11
3.01523e-13
-5.29053e-11
3.14817e-13
-5.30675e-11
1.62173e-13
-5.32303e-11
1.62843e-13
-5.35463e-11
3.15984e-13
-5.38524e-11
3.06164e-13
-5.41703e-11
3.17874e-13
-5.43349e-11
1.64558e-13
-5.44993e-11
1.6447e-13
-5.48193e-11
3.19926e-13
-5.51289e-11
3.09641e-13
-5.54506e-11
3.21704e-13
-5.5617e-11
1.66429e-13
-5.57835e-11
1.66439e-13
-5.61071e-11
3.23641e-13
-5.64204e-11
3.1327e-13
-5.67458e-11
3.25433e-13
-5.69142e-11
1.68366e-13
-5.70826e-11
1.68363e-13
-5.74099e-11
3.27386e-13
-5.77268e-11
3.16878e-13
-5.8056e-11
3.29176e-13
-5.82263e-11
1.70295e-13
-5.83966e-11
1.70294e-13
-5.87277e-11
3.31125e-13
-5.90482e-11
3.20492e-13
-5.93811e-11
3.32914e-13
-5.95533e-11
1.7223e-13
-5.97256e-11
1.72216e-13
-6.00604e-11
3.34878e-13
-6.03845e-11
3.24085e-13
-6.07212e-11
3.36682e-13
-6.08953e-11
1.74118e-13
-6.10695e-11
1.74209e-13
-6.14081e-11
3.38524e-13
-6.17359e-11
3.2784e-13
-6.20761e-11
3.40207e-13
-6.22525e-11
1.76375e-13
-6.24281e-11
1.75644e-13
-6.27711e-11
3.43011e-13
-6.31015e-11
3.30324e-13
-6.34471e-11
3.45649e-13
-6.36228e-11
1.75737e-13
-6.38043e-11
1.81455e-13
-6.41452e-11
3.40944e-13
-6.44891e-11
3.43899e-13
-6.4834e-11
3.44842e-13
-6.51776e-11
3.43622e-13
-6.53615e-11
1.83914e-13
-6.55396e-11
1.78109e-13
-6.58919e-11
3.52306e-13
-6.62304e-11
3.38425e-13
-6.65836e-11
3.53238e-13
-6.67655e-11
1.81904e-13
-6.69482e-11
1.82654e-13
-6.73025e-11
3.54308e-13
-6.76457e-11
3.43193e-13
-6.80019e-11
3.5621e-13
-6.81862e-11
1.84344e-13
-6.83704e-11
1.84244e-13
-6.87287e-11
3.58275e-13
-6.90754e-11
3.46654e-13
-6.94354e-11
3.60051e-13
-6.96216e-11
1.86208e-13
-6.98079e-11
1.86218e-13
-7.01698e-11
3.61987e-13
-7.05201e-11
3.50284e-13
-7.08839e-11
3.6378e-13
-7.1072e-11
1.88145e-13
-7.12602e-11
1.88143e-13
-7.16259e-11
3.6573e-13
-7.19798e-11
3.53895e-13
-7.23473e-11
3.67519e-13
-7.25374e-11
1.9008e-13
-7.27275e-11
1.90065e-13
-7.3097e-11
3.69484e-13
-7.34545e-11
3.57487e-13
-7.38257e-11
3.7129e-13
-7.40177e-11
1.91964e-13
-7.42098e-11
1.92063e-13
-7.45829e-11
3.7312e-13
-7.49441e-11
3.61256e-13
-7.53189e-11
3.74793e-13
-7.55132e-11
1.94254e-13
-7.57066e-11
1.93449e-13
-7.60843e-11
3.77683e-13
-7.64479e-11
3.63627e-13
-7.68284e-11
3.80406e-13
-7.70217e-11
1.93358e-13
-7.72214e-11
1.99649e-13
-7.75964e-11
3.75033e-13
-7.79746e-11
3.78197e-13
-7.83537e-11
3.7914e-13
-7.87314e-11
3.77712e-13
-7.89335e-11
2.02109e-13
-7.91293e-11
1.9573e-13
-7.95163e-11
3.87063e-13
-7.98881e-11
3.71728e-13
-8.0276e-11
3.8791e-13
-8.04757e-11
1.99709e-13
-8.06762e-11
2.00533e-13
-8.10651e-11
3.88893e-13
-8.14417e-11
3.76609e-13
-8.18325e-11
3.90807e-13
-8.20347e-11
2.022e-13
-8.22368e-11
2.0209e-13
-8.26297e-11
3.92882e-13
-8.30098e-11
3.80055e-13
-8.34044e-11
3.94658e-13
-8.36085e-11
2.04057e-13
-8.38125e-11
2.04068e-13
-8.42091e-11
3.96591e-13
-8.45928e-11
3.83688e-13
-8.49912e-11
3.98385e-13
-8.51972e-11
2.05996e-13
-8.54032e-11
2.05991e-13
-8.58035e-11
4.00337e-13
-8.61908e-11
3.87296e-13
-8.65929e-11
4.02128e-13
-8.68009e-11
2.07924e-13
-8.70088e-11
2.07923e-13
-8.74129e-11
4.04075e-13
-8.78038e-11
3.9091e-13
-8.82096e-11
4.05865e-13
-8.84195e-11
2.0986e-13
-8.86293e-11
2.09842e-13
-8.90372e-11
4.07831e-13
-8.94317e-11
3.94499e-13
-8.98413e-11
4.0964e-13
-9.00531e-11
2.11739e-13
-9.02649e-11
2.11849e-13
-9.06764e-11
4.11456e-13
-9.10746e-11
3.98285e-13
-9.14878e-11
4.13117e-13
-9.17018e-11
2.14066e-13
-9.1915e-11
2.13178e-13
-9.23311e-11
4.16103e-13
-9.27316e-11
4.0053e-13
-9.31506e-11
4.18921e-13
-9.33634e-11
2.12884e-13
-9.35832e-11
2.19811e-13
-9.39961e-11
4.12808e-13
-9.44123e-11
4.16203e-13
-9.48294e-11
4.17146e-13
-9.52449e-11
4.15488e-13
-9.54672e-11
2.22271e-13
-9.56824e-11
2.15255e-13
-9.6108e-11
4.25576e-13
-9.65166e-11
4.08631e-13
-9.6943e-11
4.26331e-13
-9.71624e-11
2.1944e-13
-9.73827e-11
2.20344e-13
-9.781e-11
4.27218e-13
-9.82236e-11
4.13637e-13
-9.86527e-11
4.29144e-13
-9.88747e-11
2.21986e-13
-9.90966e-11
2.21864e-13
-9.95278e-11
4.31231e-13
-9.99449e-11
4.17068e-13
-1.00378e-10
4.33006e-13
-1.00602e-10
2.23836e-13
-1.00826e-10
2.23847e-13
-1.01261e-10
4.34937e-13
-1.01681e-10
4.20702e-13
-1.02118e-10
4.36732e-13
-1.02344e-10
2.25775e-13
-1.02569e-10
2.25771e-13
-1.03008e-10
4.3868e-13
-1.03432e-10
4.24313e-13
-1.03873e-10
4.4047e-13
-1.04101e-10
2.27711e-13
-1.04328e-10
2.27691e-13
-1.04771e-10
4.42437e-13
-1.05199e-10
4.27901e-13
-1.05643e-10
4.44248e-13
-1.05873e-10
2.29585e-13
-1.06102e-10
2.29703e-13
-1.06548e-10
4.46053e-13
-1.0698e-10
4.31701e-13
-1.07428e-10
4.47703e-13
-1.0766e-10
2.31946e-13
-1.07891e-10
2.30983e-13
-1.08341e-10
4.50774e-13
-1.08775e-10
4.33832e-13
-1.09229e-10
4.53678e-13
-1.09459e-10
2.30506e-13
-1.09697e-10
2.38005e-13
-1.10144e-10
4.46898e-13
-1.10595e-10
4.50501e-13
-1.11046e-10
4.51444e-13
-1.11496e-10
4.49579e-13
-1.11736e-10
2.40466e-13
-1.11969e-10
2.32875e-13
-1.12429e-10
4.60333e-13
-1.12871e-10
4.41933e-13
-1.13332e-10
4.61003e-13
-1.1357e-10
2.37246e-13
-1.13808e-10
2.38223e-13
-1.1427e-10
4.61803e-13
-1.14717e-10
4.47054e-13
-1.1518e-10
4.63741e-13
-1.1542e-10
2.39842e-13
-1.1566e-10
2.3971e-13
-1.16126e-10
4.65838e-13
-1.16576e-10
4.50469e-13
-1.17044e-10
4.67612e-13
-1.17286e-10
2.41685e-13
-1.17527e-10
2.41696e-13
-1.17997e-10
4.69541e-13
-1.18451e-10
4.54106e-13
-1.18922e-10
4.71337e-13
-1.19166e-10
2.43626e-13
-1.1941e-10
2.43619e-13
-1.19883e-10
4.73287e-13
-1.20341e-10
4.57713e-13
-1.20816e-10
4.75081e-13
-1.21061e-10
2.45553e-13
-1.21307e-10
2.45551e-13
-1.21784e-10
4.77025e-13
-1.22245e-10
4.61328e-13
-1.22724e-10
4.78816e-13
-1.22971e-10
2.47491e-13
-1.23219e-10
2.47469e-13
-1.237e-10
4.80784e-13
-1.24165e-10
4.64913e-13
-1.24647e-10
4.82597e-13
-1.24897e-10
2.49361e-13
-1.25146e-10
2.49488e-13
-1.2563e-10
4.84389e-13
-1.26099e-10
4.6873e-13
-1.26585e-10
4.86029e-13
-1.26837e-10
2.51758e-13
-1.27088e-10
2.50713e-13
-1.27577e-10
4.89194e-13
-1.28048e-10
4.70735e-13
-1.2854e-10
4.92193e-13
-1.2879e-10
2.50032e-13
-1.29048e-10
2.58166e-13
-1.29533e-10
4.84673e-13
-1.30021e-10
4.88507e-13
-1.30511e-10
4.8945e-13
-1.30998e-10
4.87354e-13
-1.31259e-10
2.60628e-13
-1.31511e-10
2.52401e-13
-1.3201e-10
4.98847e-13
-1.32489e-10
4.78836e-13
-1.32988e-10
4.99424e-13
-1.33245e-10
2.56976e-13
-1.33503e-10
2.58034e-13
-1.34003e-10
5.00127e-13
-1.34487e-10
4.84082e-13
-1.34989e-10
5.02078e-13
-1.35249e-10
2.59628e-13
-1.35508e-10
2.59484e-13
-1.36013e-10
5.04186e-13
-1.365e-10
4.87482e-13
-1.37006e-10
5.0596e-13
-1.37268e-10
2.61464e-13
-1.37529e-10
2.61476e-13
-1.38037e-10
5.07886e-13
-1.38528e-10
4.9112e-13
-1.39038e-10
5.09684e-13
-1.39301e-10
2.63405e-13
-1.39565e-10
2.63399e-13
-1.40076e-10
5.1163e-13
-1.40571e-10
4.94731e-13
-1.41084e-10
5.13422e-13
-1.4135e-10
2.65341e-13
-1.41615e-10
2.65317e-13
-1.4213e-10
5.15389e-13
-1.42629e-10
4.98315e-13
-1.43146e-10
5.17205e-13
-1.43413e-10
2.67207e-13
-1.4368e-10
2.67343e-13
-1.44199e-10
5.18985e-13
-1.44702e-10
5.02146e-13
-1.45222e-10
5.20615e-13
-1.45492e-10
2.69638e-13
-1.4576e-10
2.68517e-13
-1.46284e-10
5.23865e-13
-1.46788e-10
5.04037e-13
-1.47315e-10
5.2695e-13
-1.47583e-10
2.67653e-13
-1.47859e-10
2.7636e-13
-1.48378e-10
5.18762e-13
-1.48901e-10
5.22805e-13
-1.49425e-10
5.23748e-13
-1.49946e-10
5.21445e-13
-1.50225e-10
2.78823e-13
-1.50495e-10
2.70021e-13
-1.51028e-10
5.33603e-13
-1.51541e-10
5.12138e-13
-1.52075e-10
5.34096e-13
-1.52349e-10
2.74782e-13
-1.52625e-10
2.75912e-13
-1.5316e-10
5.34712e-13
-1.53678e-10
5.17499e-13
-1.54214e-10
5.36675e-13
-1.54492e-10
2.77484e-13
-1.54769e-10
2.77329e-13
-1.55308e-10
5.38794e-13
-1.55829e-10
5.20883e-13
-1.56369e-10
5.40567e-13
-1.56649e-10
2.79313e-13
-1.56928e-10
2.79325e-13
-1.5747e-10
5.4249e-13
-1.57995e-10
5.24524e-13
-1.58539e-10
5.44289e-13
-1.5882e-10
2.81256e-13
-1.59102e-10
2.81246e-13
-1.59648e-10
5.46238e-13
-1.60176e-10
5.28131e-13
-1.60724e-10
5.48033e-13
-1.61007e-10
2.83183e-13
-1.6129e-10
2.83178e-13
-1.6184e-10
5.49975e-13
-1.62372e-10
5.31746e-13
-1.62924e-10
5.51768e-13
-1.63209e-10
2.85122e-13
-1.63494e-10
2.85095e-13
-1.64048e-10
5.53736e-13
-1.64583e-10
5.35327e-13
-1.65139e-10
5.55555e-13
-1.65426e-10
2.86983e-13
-1.65713e-10
2.87128e-13
-1.6627e-10
5.57321e-13
-1.66809e-10
5.39174e-13
-1.67368e-10
5.5894e-13
-1.67658e-10
2.8945e-13
-1.67946e-10
2.88247e-13
-1.68508e-10
5.62285e-13
-1.69049e-10
5.4094e-13
-1.69615e-10
5.65465e-13
-1.69902e-10
2.8718e-13
-1.70198e-10
2.96521e-13
-1.70755e-10
5.56537e-13
-1.71316e-10
5.60811e-13
-1.71878e-10
5.61754e-13
-1.72437e-10
5.59221e-13
-1.72736e-10
2.98985e-13
-1.73025e-10
2.89546e-13
-1.73597e-10
5.72117e-13
-1.74146e-10
5.49041e-13
-1.74719e-10
5.72517e-13
-1.75013e-10
2.94513e-13
-1.75309e-10
2.95724e-13
-1.75882e-10
5.73036e-13
-1.76437e-10
5.54527e-13
-1.77012e-10
5.75013e-13
-1.77309e-10
2.9727e-13
-1.77606e-10
2.97104e-13
-1.78183e-10
5.77142e-13
-1.78741e-10
5.57896e-13
-1.7932e-10
5.78915e-13
-1.79619e-10
2.99093e-13
-1.79918e-10
2.99104e-13
-1.80499e-10
5.80836e-13
-1.81061e-10
5.61538e-13
-1.81643e-10
5.82636e-13
-1.81944e-10
3.01035e-13
-1.82245e-10
3.01026e-13
-1.8283e-10
5.8458e-13
-1.83395e-10
5.65149e-13
-1.83981e-10
5.86374e-13
-1.84284e-10
3.02972e-13
-1.84587e-10
3.02943e-13
-1.85176e-10
5.88342e-13
-1.85744e-10
5.68729e-13
-1.86335e-10
5.90163e-13
-1.86639e-10
3.04829e-13
-1.86944e-10
3.04983e-13
-1.87536e-10
5.91917e-13
-1.88109e-10
5.72591e-13
-1.88702e-10
5.93526e-13
-1.8901e-10
3.0733e-13
-1.89316e-10
3.06051e-13
-1.89913e-10
5.96957e-13
-1.90487e-10
5.74243e-13
-1.91087e-10
6.00222e-13
-1.91392e-10
3.04801e-13
-1.91707e-10
3.14715e-13
-1.92297e-10
5.90627e-13
-1.92892e-10
5.95109e-13
-1.93489e-10
5.96052e-13
-1.94082e-10
5.93312e-13
-1.94399e-10
3.17181e-13
-1.94706e-10
3.07166e-13
-1.95313e-10
6.06873e-13
-1.95895e-10
5.82344e-13
-1.96503e-10
6.07189e-13
-1.96815e-10
3.12318e-13
-1.97129e-10
3.13602e-13
-1.97736e-10
6.07621e-13
-1.98324e-10
5.87943e-13
-1.98934e-10
6.0961e-13
-1.99249e-10
3.15126e-13
-1.99564e-10
3.14949e-13
-2.00176e-10
6.11749e-13
-2.00767e-10
5.91297e-13
-2.0138e-10
6.13522e-13
-2.01697e-10
3.16942e-13
-2.02014e-10
3.16954e-13
-2.0263e-10
6.1544e-13
-2.03225e-10
5.94942e-13
-2.03842e-10
6.17241e-13
-2.04161e-10
3.18886e-13
-2.0448e-10
3.18873e-13
-2.05099e-10
6.19188e-13
-2.05697e-10
5.98548e-13
-2.06318e-10
6.20985e-13
-2.06639e-10
3.20813e-13
-2.0696e-10
3.20806e-13
-2.07583e-10
6.22925e-13
-2.08185e-10
6.02164e-13
-2.0881e-10
6.2472e-13
-2.09133e-10
3.22753e-13
-2.09455e-10
3.22721e-13
-2.10082e-10
6.26689e-13
-2.10688e-10
6.05741e-13
-2.11316e-10
6.28512e-13
-2.11641e-10
3.24605e-13
-2.11966e-10
3.24767e-13
-2.12596e-10
6.30253e-13
-2.13205e-10
6.09619e-13
-2.13837e-10
6.31851e-13
-2.14164e-10
3.27142e-13
-2.1449e-10
3.25781e-13
-2.15126e-10
6.35376e-13
-2.15737e-10
6.11145e-13
-2.16375e-10
6.38737e-13
-2.167e-10
3.24328e-13
-2.17035e-10
3.34876e-13
-2.17663e-10
6.28402e-13
-2.18296e-10
6.33114e-13
-2.1893e-10
6.34058e-13
-2.19561e-10
6.31088e-13
-2.19899e-10
3.37343e-13
-2.20225e-10
3.26691e-13
-2.20871e-10
6.45387e-13
-2.2149e-10
6.19247e-13
-2.22136e-10
6.4561e-13
-2.22468e-10
3.32049e-13
-2.22801e-10
3.33413e-13
-2.23447e-10
6.45945e-13
-2.24072e-10
6.24972e-13
-2.2472e-10
6.47947e-13
-2.25055e-10
3.34912e-13
-2.2539e-10
3.34723e-13
-2.2604e-10
6.50097e-13
-2.26668e-10
6.2831e-13
-2.2732e-10
6.5187e-13
-2.27657e-10
3.36721e-13
-2.27993e-10
3.36732e-13
-2.28647e-10
6.53785e-13
-2.29279e-10
6.31956e-13
-2.29935e-10
6.55588e-13
-2.30273e-10
3.38665e-13
-2.30612e-10
3.38654e-13
-2.31269e-10
6.5753e-13
-2.31905e-10
6.35567e-13
-2.32564e-10
6.59325e-13
-2.32905e-10
3.40603e-13
-2.33246e-10
3.40569e-13
-2.33907e-10
6.61294e-13
-2.34546e-10
6.39143e-13
-2.35209e-10
6.63121e-13
-2.35552e-10
3.42451e-13
-2.35894e-10
3.42622e-13
-2.36559e-10
6.64849e-13
-2.37202e-10
6.43035e-13
-2.37868e-10
6.66437e-13
-2.38213e-10
3.45022e-13
-2.38557e-10
3.43585e-13
-2.39227e-10
6.70047e-13
-2.39872e-10
6.44448e-13
-2.40545e-10
6.73495e-13
-2.40887e-10
3.41949e-13
-2.4124e-10
3.5307e-13
-2.41903e-10
6.62491e-13
-2.4257e-10
6.67412e-13
-2.43238e-10
6.68356e-13
-2.43904e-10
6.65179e-13
-2.44259e-10
3.55538e-13
-2.44603e-10
3.44312e-13
-2.45284e-10
6.80143e-13
-2.45936e-10
6.52549e-13
-2.46616e-10
6.80283e-13
-2.46966e-10
3.49855e-13
-2.47317e-10
3.51291e-13
-2.47998e-10
6.80529e-13
-2.48656e-10
6.58388e-13
-2.49339e-10
6.82544e-13
-2.49692e-10
3.52768e-13
-2.50044e-10
3.52568e-13
-2.50729e-10
6.84704e-13
-2.51391e-10
6.61711e-13
-2.52077e-10
6.86477e-13
-2.52432e-10
3.5457e-13
-2.52786e-10
3.54582e-13
-2.53475e-10
6.88389e-13
-2.5414e-10
6.6536e-13
-2.5483e-10
6.90193e-13
-2.55187e-10
3.56517e-13
-2.55543e-10
3.565e-13
-2.56235e-10
6.92138e-13
-2.56904e-10
6.68966e-13
-2.57598e-10
6.93938e-13
-2.57957e-10
3.58443e-13
-2.58315e-10
3.58434e-13
-2.59011e-10
6.95875e-13
-2.59684e-10
6.72582e-13
-2.60381e-10
6.97671e-13
-2.60742e-10
3.60384e-13
-2.61102e-10
3.60346e-13
-2.61802e-10
6.99641e-13
-2.62478e-10
6.76155e-13
-2.63179e-10
7.0147e-13
-2.63542e-10
3.62227e-13
-2.63904e-10
3.62407e-13
-2.64607e-10
7.03185e-13
-2.65287e-10
6.80064e-13
-2.65992e-10
7.04762e-13
-2.66357e-10
3.64834e-13
-2.6672e-10
3.63314e-13
-2.67429e-10
7.08467e-13
-2.6811e-10
6.81351e-13
-2.68822e-10
7.1201e-13
-2.69183e-10
3.61476e-13
-2.69557e-10
3.73231e-13
-2.70257e-10
7.00266e-13
-2.70962e-10
7.05418e-13
-2.71669e-10
7.06361e-13
-2.72372e-10
7.02955e-13
-2.72747e-10
3.75701e-13
-2.73111e-10
3.63837e-13
-2.7383e-10
7.18656e-13
-2.74519e-10
6.89452e-13
-2.75238e-10
7.18704e-13
-2.75608e-10
3.69586e-13
-2.75979e-10
3.71102e-13
-2.76698e-10
7.18853e-13
-2.77393e-10
6.95417e-13
-2.78114e-10
7.20881e-13
-2.78486e-10
3.72554e-13
-2.78859e-10
3.72342e-13
-2.79582e-10
7.23052e-13
-2.8028e-10
6.98724e-13
-2.81005e-10
7.24825e-13
-2.8138e-10
3.7435e-13
-2.81754e-10
3.74361e-13
-2.82481e-10
7.26735e-13
-2.83183e-10
7.02374e-13
-2.83912e-10
7.28541e-13
-2.84288e-10
3.76295e-13
-2.84664e-10
3.76281e-13
-2.85395e-10
7.3048e-13
-2.86101e-10
7.05985e-13
-2.86833e-10
7.32277e-13
-2.87211e-10
3.78235e-13
-2.87589e-10
3.78194e-13
-2.88324e-10
7.34246e-13
-2.89033e-10
7.09557e-13
-2.89769e-10
7.36079e-13
-2.90149e-10
3.80074e-13
-2.9053e-10
3.80261e-13
-2.91267e-10
7.3778e-13
-2.91981e-10
7.1348e-13
-2.9272e-10
7.39348e-13
-2.93103e-10
3.82714e-13
-2.93484e-10
3.81119e-13
-2.94227e-10
7.43138e-13
-2.94942e-10
7.14653e-13
-2.95689e-10
7.46767e-13
-2.96068e-10
3.79097e-13
-2.96459e-10
3.91425e-13
-2.97194e-10
7.34355e-13
-2.97933e-10
7.39716e-13
-2.98674e-10
7.40659e-13
-2.99411e-10
7.37046e-13
-2.99805e-10
3.93896e-13
-3.00186e-10
3.81457e-13
-3.0094e-10
7.53413e-13
-3.01662e-10
7.22754e-13
-3.02416e-10
7.53376e-13
-3.02803e-10
3.87392e-13
-3.03192e-10
3.8898e-13
-3.03946e-10
7.53438e-13
-3.04674e-10
7.28833e-13
-3.0543e-10
7.55479e-13
-3.0582e-10
3.9041e-13
-3.06211e-10
3.90187e-13
-3.06968e-10
7.57659e-13
-3.077e-10
7.32125e-13
-3.0846e-10
7.59432e-13
-3.08852e-10
3.92199e-13
-3.09244e-10
3.9221e-13
-3.10005e-10
7.61338e-13
-3.10741e-10
7.35778e-13
-3.11504e-10
7.63145e-13
-3.11899e-10
3.94147e-13
-3.12293e-10
3.94127e-13
-3.13058e-10
7.65088e-13
-3.13797e-10
7.39383e-13
-3.14564e-10
7.66891e-13
-3.1496e-10
3.96073e-13
-3.15356e-10
3.96061e-13
-3.16125e-10
7.68824e-13
-3.16868e-10
7.43e-13
-3.17639e-10
7.70624e-13
-3.18037e-10
3.98016e-13
-3.18435e-10
3.97972e-13
-3.19207e-10
7.72593e-13
-3.19954e-10
7.46569e-13
-3.20728e-10
7.74428e-13
-3.21128e-10
3.9985e-13
-3.21528e-10
4.00046e-13
-3.22304e-10
7.76116e-13
-3.23055e-10
7.50509e-13
-3.23832e-10
7.77674e-13
-3.24235e-10
4.02527e-13
-3.24636e-10
4.00848e-13
-3.25417e-10
7.81558e-13
-3.26169e-10
7.51556e-13
-3.26954e-10
7.85282e-13
-3.27353e-10
3.98624e-13
-3.27764e-10
4.11586e-13
-3.28537e-10
7.7213e-13
-3.29314e-10
7.77722e-13
-3.30093e-10
7.78665e-13
-3.30868e-10
7.74822e-13
-3.31282e-10
4.14059e-13
-3.31683e-10
4.00982e-13
-3.32475e-10
7.91926e-13
-3.33234e-10
7.59657e-13
-3.34026e-10
7.91797e-13
-3.34433e-10
4.07123e-13
-3.34842e-10
4.08791e-13
-3.35634e-10
7.91762e-13
-3.364e-10
7.65862e-13
-3.37193e-10
7.93816e-13
-3.37604e-10
4.10197e-13
-3.38014e-10
4.09961e-13
-3.3881e-10
7.96007e-13
-3.39579e-10
7.69138e-13
-3.40377e-10
7.9778e-13
-3.40789e-10
4.11979e-13
-3.41201e-10
4.11989e-13
-3.42e-10
7.99684e-13
-3.42773e-10
7.72792e-13
-3.43574e-10
8.01493e-13
-3.43988e-10
4.13926e-13
-3.44402e-10
4.13908e-13
-3.45206e-10
8.03429e-13
-3.45982e-10
7.76403e-13
-3.46787e-10
8.0523e-13
-3.47203e-10
4.15866e-13
-3.47619e-10
4.1582e-13
-3.48426e-10
8.07198e-13
-3.49206e-10
7.79971e-13
-3.50015e-10
8.09037e-13
-3.50433e-10
4.17696e-13
-3.50851e-10
4.179e-13
-3.51662e-10
8.10712e-13
-3.52446e-10
7.83925e-13
-3.53258e-10
8.1226e-13
-3.53678e-10
4.20407e-13
-3.54097e-10
4.18652e-13
-3.54913e-10
8.16229e-13
-3.55698e-10
7.84858e-13
-3.56518e-10
8.2004e-13
-3.56934e-10
4.16246e-13
-3.57364e-10
4.29779e-13
-3.5817e-10
8.06219e-13
-3.58982e-10
8.1202e-13
-3.59795e-10
8.12963e-13
-3.60604e-10
8.08913e-13
-3.61036e-10
4.32254e-13
-3.61455e-10
4.18602e-13
-3.62282e-10
8.26682e-13
-3.63075e-10
7.9296e-13
-3.63901e-10
8.2647e-13
-3.64326e-10
4.24929e-13
-3.64753e-10
4.2667e-13
-3.65579e-10
8.26347e-13
-3.66378e-10
7.99278e-13
-3.67207e-10
8.28413e-13
-3.67635e-10
4.28053e-13
-3.68063e-10
4.27806e-13
-3.68893e-10
8.30614e-13
-3.69696e-10
8.02539e-13
-3.70528e-10
8.32387e-13
-3.70958e-10
4.29828e-13
-3.71388e-10
4.29838e-13
-3.72222e-10
8.34287e-13
-3.73028e-10
8.06196e-13
-3.73864e-10
8.36098e-13
-3.74296e-10
4.31778e-13
-3.74728e-10
4.31754e-13
-3.75566e-10
8.38038e-13
-3.76376e-10
8.098e-13
-3.77216e-10
8.39844e-13
-3.77649e-10
4.33704e-13
-3.78083e-10
4.33688e-13
-3.78925e-10
8.41773e-13
-3.79738e-10
8.13418e-13
-3.80582e-10
8.43576e-13
-3.81017e-10
4.35647e-13
-3.81453e-10
4.35597e-13
-3.82298e-10
8.45545e-13
-3.83115e-10
8.16983e-13
-3.83963e-10
8.47386e-13
-3.844e-10
4.37472e-13
-3.84838e-10
4.37685e-13
-3.85687e-10
8.49048e-13
-3.86508e-10
8.20954e-13
-3.87359e-10
8.50585e-13
-3.87799e-10
4.40219e-13
-3.88237e-10
4.38382e-13
-3.89092e-10
8.54648e-13
-3.89914e-10
8.21761e-13
-3.90772e-10
8.58555e-13
-3.91208e-10
4.35773e-13
-3.91658e-10
4.4994e-13
-3.92502e-10
8.43993e-13
-3.93352e-10
8.50026e-13
-3.94203e-10
8.50969e-13
-3.9505e-10
8.46689e-13
-3.95502e-10
4.52417e-13
-3.9594e-10
4.38127e-13
-3.96805e-10
8.65196e-13
-3.97635e-10
8.29862e-13
-3.985e-10
8.64891e-13
-3.98945e-10
4.4466e-13
-3.99391e-10
4.4648e-13
-4.00256e-10
8.6467e-13
-4.01092e-10
8.36307e-13
-4.01959e-10
8.66751e-13
-4.02407e-10
4.47839e-13
-4.02854e-10
4.4758e-13
-4.03723e-10
8.68962e-13
-4.04563e-10
8.39552e-13
-4.05434e-10
8.70735e-13
-4.05883e-10
4.49608e-13
-4.06333e-10
4.49617e-13
-4.07205e-10
8.72633e-13
-4.08049e-10
8.4321e-13
-4.08923e-10
8.74446e-13
-4.09375e-10
4.51557e-13
-4.09826e-10
4.51535e-13
-4.10703e-10
8.76379e-13
-4.11549e-10
8.46821e-13
-4.12428e-10
8.78182e-13
-4.12881e-10
4.53498e-13
-4.13334e-10
4.53445e-13
-4.14215e-10
8.8015e-13
-4.15065e-10
8.50385e-13
-4.15947e-10