/*--------------------------------*- C++ -*----------------------------------*\
| =========                 |                                                 |
| \\      /  F ield         | OpenFOAM: The Open Source CFD Toolbox           |
|  \\    /   O peration     | Version:  2206                                  |
|   \\  /    A nd           | Website:  www.openfoam.com                      |
|    \\/     M anipulation  |                                                 |
\*---------------------------------------------------------------------------*/
FoamFile
{
    version     2.0;
    format      ascii;
    arch        "LSB;label=32;scalar=64";
    class       volScalarField;
    location    "10";
    object      p;
}
// * * * * * * * * * * * * * * * * * * * * * * * * * * * * * * * * * * * * * //

dimensions      [0 2 -2 0 0 0 0];

internalField   nonuniform List<scalar> 
50000
(
-1.89508e-07
-2.90988e-07
-9.58941e-07
-2.57693e-07
-5.82293e-07
-2.34499e-07
-3.65179e-07
-1.4653e-07
-2.04765e-07
-5.82073e-08
-8.4059e-08
2.33182e-08
1.51816e-08
9.96876e-08
1.03115e-07
1.73754e-07
1.85527e-07
2.4744e-07
2.65422e-07
3.21657e-07
3.44334e-07
3.96805e-07
4.23126e-07
4.73115e-07
5.02373e-07
5.50778e-07
5.82508e-07
6.29987e-07
6.63882e-07
7.10928e-07
7.46791e-07
7.93785e-07
8.31487e-07
8.78728e-07
9.18186e-07
9.65911e-07
1.00707e-06
1.05548e-06
1.09831e-06
1.14755e-06
1.19205e-06
1.24225e-06
1.28839e-06
1.33967e-06
1.38747e-06
1.43991e-06
1.48936e-06
1.54305e-06
1.59416e-06
1.64916e-06
1.70194e-06
1.75832e-06
1.81278e-06
1.87058e-06
1.92673e-06
1.98599e-06
2.04385e-06
2.10462e-06
2.16419e-06
2.2265e-06
2.28779e-06
2.35168e-06
2.41471e-06
2.4802e-06
2.54497e-06
2.61208e-06
2.67861e-06
2.74737e-06
2.81566e-06
2.88609e-06
2.95615e-06
3.02827e-06
3.10011e-06
3.17394e-06
3.24757e-06
3.32311e-06
3.39854e-06
3.47581e-06
3.55304e-06
3.63206e-06
3.7111e-06
3.79188e-06
3.87273e-06
3.95527e-06
4.03794e-06
4.12226e-06
4.20676e-06
4.29287e-06
4.37919e-06
4.46709e-06
4.55525e-06
4.64496e-06
4.73496e-06
4.82647e-06
4.91831e-06
5.01163e-06
5.10532e-06
5.20047e-06
5.29601e-06
5.39298e-06
5.49037e-06
5.58917e-06
5.68842e-06
5.78906e-06
5.89017e-06
5.99264e-06
6.09561e-06
6.19993e-06
6.30477e-06
6.41093e-06
6.51764e-06
6.62565e-06
6.73422e-06
6.84409e-06
6.95454e-06
7.06626e-06
7.17858e-06
7.29217e-06
7.40636e-06
7.52181e-06
7.63788e-06
7.75519e-06
7.87315e-06
7.99232e-06
8.11216e-06
8.2332e-06
8.35492e-06
8.47784e-06
8.60144e-06
8.72623e-06
8.85171e-06
8.97838e-06
9.10575e-06
9.2343e-06
9.36355e-06
9.49398e-06
9.62512e-06
9.75742e-06
9.89046e-06
1.00246e-05
1.01596e-05
1.02956e-05
1.04325e-05
1.05704e-05
1.07091e-05
1.0849e-05
1.09896e-05
1.11313e-05
1.12738e-05
1.14174e-05
1.15618e-05
1.17073e-05
1.18536e-05
1.2001e-05
1.21491e-05
1.22984e-05
1.24485e-05
1.25997e-05
1.27517e-05
1.29047e-05
1.30586e-05
1.32136e-05
1.33693e-05
1.35262e-05
1.36839e-05
1.38426e-05
1.40022e-05
1.41629e-05
1.43243e-05
1.44869e-05
1.46502e-05
1.48147e-05
1.498e-05
1.51463e-05
1.53135e-05
1.54817e-05
1.56508e-05
1.58209e-05
1.59919e-05
1.6164e-05
1.63368e-05
1.65108e-05
1.66856e-05
1.68614e-05
1.70381e-05
1.72158e-05
1.73944e-05
1.75741e-05
1.77546e-05
1.79361e-05
1.81185e-05
1.8302e-05
1.84863e-05
1.86716e-05
1.88578e-05
1.90451e-05
1.92332e-05
1.94224e-05
1.96124e-05
1.98035e-05
1.99954e-05
2.01884e-05
2.03822e-05
2.05771e-05
2.07728e-05
2.09696e-05
2.11672e-05
2.13659e-05
2.15655e-05
2.17661e-05
2.19675e-05
2.217e-05
2.23734e-05
2.25778e-05
2.27831e-05
2.29894e-05
2.31966e-05
2.34048e-05
2.36139e-05
2.3824e-05
2.4035e-05
2.4247e-05
2.44599e-05
2.46738e-05
2.48887e-05
2.51045e-05
2.53212e-05
2.5539e-05
2.57576e-05
2.59773e-05
2.61978e-05
2.64194e-05
2.66418e-05
2.68653e-05
2.70897e-05
2.7315e-05
2.75413e-05
2.77686e-05
2.79968e-05
2.8226e-05
2.84561e-05
2.86872e-05
2.89192e-05
2.91522e-05
2.93861e-05
2.9621e-05
2.98569e-05
3.00937e-05
3.03314e-05
3.05702e-05
3.08098e-05
3.10505e-05
3.1292e-05
3.15346e-05
3.1778e-05
3.20225e-05
3.22679e-05
3.25143e-05
3.27616e-05
3.30098e-05
3.3259e-05
3.35092e-05
3.37604e-05
3.40125e-05
3.42655e-05
3.45195e-05
3.47744e-05
3.50304e-05
3.52872e-05
3.5545e-05
3.58038e-05
3.60635e-05
3.63242e-05
3.65859e-05
3.68484e-05
3.7112e-05
3.73765e-05
3.7642e-05
3.79084e-05
3.81758e-05
3.84441e-05
3.87134e-05
3.89836e-05
3.92548e-05
3.9527e-05
3.98001e-05
4.00741e-05
4.03492e-05
4.06251e-05
4.09021e-05
4.11799e-05
4.14588e-05
4.17386e-05
4.20194e-05
4.23011e-05
4.25837e-05
4.28673e-05
4.31519e-05
4.34375e-05
4.3724e-05
4.40114e-05
4.42998e-05
4.45892e-05
4.48795e-05
4.51707e-05
4.5463e-05
4.57561e-05
4.60503e-05
4.63454e-05
4.66414e-05
4.69384e-05
4.72364e-05
4.75353e-05
4.78352e-05
4.8136e-05
4.84378e-05
4.87405e-05
4.90443e-05
4.93489e-05
4.96545e-05
4.99611e-05
5.02686e-05
5.05771e-05
5.08865e-05
5.11969e-05
5.15083e-05
5.18206e-05
5.21338e-05
5.2448e-05
5.27632e-05
5.30794e-05
5.33964e-05
5.37145e-05
5.40335e-05
5.43534e-05
5.46744e-05
5.49962e-05
5.5319e-05
5.56428e-05
5.59676e-05
5.62933e-05
5.66199e-05
5.69475e-05
5.72761e-05
5.76056e-05
5.79361e-05
5.82675e-05
5.85999e-05
5.89332e-05
5.92675e-05
5.96028e-05
5.9939e-05
6.02762e-05
6.06143e-05
6.09534e-05
6.12934e-05
6.16344e-05
6.19764e-05
6.23193e-05
6.26632e-05
6.3008e-05
6.33538e-05
6.37005e-05
6.40482e-05
6.43969e-05
6.47465e-05
6.5097e-05
6.54485e-05
6.5801e-05
6.61544e-05
6.65088e-05
6.68642e-05
6.72205e-05
6.75777e-05
6.7936e-05
6.82951e-05
6.86553e-05
6.90163e-05
6.93784e-05
6.97414e-05
7.01053e-05
7.04703e-05
7.08361e-05
7.1203e-05
7.15707e-05
7.19395e-05
7.23092e-05
7.26798e-05
7.30514e-05
7.3424e-05
7.37975e-05
7.4172e-05
7.45474e-05
7.49238e-05
7.53012e-05
7.56795e-05
7.60587e-05
7.6439e-05
7.68201e-05
7.72023e-05
7.75854e-05
7.79694e-05
7.83544e-05
7.87404e-05
7.91273e-05
7.95152e-05
7.9904e-05
8.02938e-05
8.06845e-05
8.10762e-05
8.14689e-05
8.18625e-05
8.22571e-05
8.26526e-05
8.30491e-05
8.34465e-05
8.38449e-05
8.42443e-05
8.46446e-05
8.50459e-05
8.54481e-05
8.58513e-05
8.62554e-05
8.66605e-05
8.70665e-05
8.74736e-05
8.78815e-05
8.82904e-05
8.87003e-05
8.91112e-05
8.9523e-05
8.99357e-05
9.03494e-05
9.07641e-05
9.11797e-05
9.15963e-05
9.20138e-05
9.24323e-05
9.28518e-05
9.32722e-05
9.36935e-05
9.41158e-05
9.45391e-05
9.49634e-05
9.53885e-05
9.58147e-05
9.62418e-05
9.66699e-05
9.70989e-05
9.75288e-05
9.79598e-05
9.83917e-05
9.88245e-05
9.92583e-05
9.96931e-05
0.000100129
0.000100565
0.000101003
0.000101442
0.000101881
0.000102322
0.000102763
0.000103206
0.000103649
0.000104093
0.000104539
0.000104985
0.000105432
0.00010588
0.000106329
0.000106779
0.00010723
0.000107682
0.000108135
0.000108589
0.000109044
0.0001095
0.000109957
0.000110414
0.000110873
0.000111333
0.000111793
0.000112255
0.000112717
0.000113181
0.000113645
0.000114111
0.000114577
0.000115044
0.000115513
0.000115982
0.000116452
0.000116923
0.000117395
0.000117868
0.000118342
0.000118817
0.000119293
0.00011977
0.000120248
0.000120726
0.000121206
0.000121687
0.000122169
0.000122651
0.000123135
0.000123619
0.000124105
0.000124591
0.000125079
0.000125567
0.000126056
0.000126546
0.000127038
0.00012753
0.000128023
0.000128517
0.000129012
0.000129508
0.000130005
0.000130503
0.000131002
0.000131502
0.000132003
0.000132504
0.000133007
0.000133511
0.000134015
0.000134521
0.000135027
0.000135535
0.000136043
0.000136553
0.000137063
0.000137574
0.000138087
0.0001386
0.000139114
0.000139629
0.000140145
0.000140662
0.00014118
0.000141699
0.000142219
0.00014274
0.000143262
0.000143785
0.000144309
0.000144833
0.000145359
0.000145886
0.000146413
0.000146942
0.000147471
0.000148002
0.000148533
0.000149066
0.000149599
0.000150133
0.000150668
0.000151205
0.000151742
0.00015228
0.000152819
0.000153359
0.0001539
0.000154442
0.000154985
0.000155529
0.000156074
0.000156619
0.000157166
0.000157714
0.000158262
0.000158812
0.000159363
0.000159914
0.000160466
0.00016102
0.000161574
0.00016213
0.000162686
0.000163243
0.000163801
0.000164361
0.000164921
0.000165482
0.000166044
0.000166607
0.000167171
0.000167736
0.000168302
0.000168868
0.000169436
0.000170005
0.000170575
0.000171145
0.000171717
0.00017229
0.000172863
0.000173438
0.000174013
0.000174589
0.000175167
0.000175745
0.000176324
0.000176905
0.000177486
0.000178068
0.000178651
0.000179235
0.00017982
0.000180406
0.000180993
0.000181581
0.00018217
0.00018276
0.00018335
0.000183942
0.000184535
0.000185128
0.000185723
0.000186318
0.000186915
0.000187512
0.000188111
0.00018871
0.00018931
0.000189912
0.000190514
0.000191117
0.000191721
0.000192326
0.000192933
0.00019354
0.000194148
0.000194757
0.000195366
0.000195977
0.000196589
0.000197202
0.000197816
0.00019843
0.000199046
0.000199663
0.00020028
0.000200899
0.000201518
0.000202139
0.00020276
0.000203382
0.000204006
0.00020463
0.000205255
0.000205881
0.000206508
0.000207136
0.000207765
0.000208395
0.000209026
0.000209658
0.000210291
0.000210925
0.00021156
0.000212196
0.000212832
0.00021347
0.000214109
0.000214748
0.000215389
0.00021603
0.000216673
0.000217316
0.00021796
0.000218606
0.000219252
0.000219899
0.000220547
0.000221196
0.000221847
0.000222498
0.00022315
0.000223803
0.000224457
0.000225111
0.000225767
0.000226424
0.000227082
0.000227741
0.0002284
0.000229061
0.000229722
0.000230385
0.000231048
0.000231713
0.000232378
0.000233045
0.000233712
0.00023438
0.00023505
0.00023572
0.000236391
0.000237063
0.000237736
0.00023841
0.000239085
0.000239761
0.000240438
0.000241116
0.000241795
0.000242474
0.000243155
0.000243837
0.00024452
0.000245203
0.000245888
0.000246573
0.00024726
0.000247947
0.000248636
0.000249325
0.000250015
0.000250706
0.000251399
0.000252092
0.000252786
0.000253481
0.000254177
0.000254874
0.000255572
0.000256271
0.000256971
0.000257672
0.000258373
0.000259076
0.00025978
0.000260485
0.00026119
0.000261897
0.000262604
0.000263313
0.000264022
0.000264733
0.000265444
0.000266156
0.00026687
0.000267584
0.000268299
0.000269015
0.000269732
0.00027045
0.000271169
0.000271889
0.00027261
0.000273332
0.000274055
0.000274779
0.000275504
0.000276229
0.000276956
0.000277684
0.000278412
0.000279142
0.000279872
0.000280604
0.000281336
0.000282069
0.000282804
0.000283539
0.000284275
0.000285013
0.000285751
0.00028649
0.00028723
0.000287971
0.000288713
0.000289456
0.0002902
0.000290945
0.00029169
0.000292437
0.000293185
0.000293934
0.000294683
0.000295434
0.000296186
0.000296938
0.000297692
0.000298446
0.000299201
0.000299958
0.000300715
0.000301473
0.000302232
0.000302993
0.000303754
0.000304516
0.000305279
0.000306043
0.000306808
0.000307574
0.000308341
0.000309109
0.000309877
0.000310647
0.000311418
0.000312189
0.000312962
0.000313736
0.00031451
0.000315286
0.000316062
0.00031684
0.000317618
0.000318397
0.000319178
0.000319959
0.000320741
0.000321524
0.000322308
0.000323093
0.000323879
0.000324666
0.000325454
0.000326243
0.000327033
0.000327824
0.000328616
0.000329408
0.000330202
0.000330997
0.000331792
0.000332589
0.000333386
0.000334185
0.000334984
0.000335785
0.000336586
0.000337388
0.000338191
0.000338996
0.000339801
0.000340607
0.000341414
0.000342222
0.000343031
0.000343841
0.000344652
0.000345464
0.000346277
0.00034709
0.000347905
0.000348721
0.000349538
0.000350355
0.000351174
0.000351993
0.000352814
0.000353635
0.000354458
0.000355281
0.000356105
0.00035693
0.000357757
0.000358584
0.000359412
0.000360241
0.000361071
0.000361902
0.000362734
0.000363567
0.000364401
0.000365236
0.000366072
0.000366908
0.000367746
0.000368585
0.000369424
0.000370265
0.000371107
0.000371949
0.000372792
0.000373637
0.000374482
0.000375329
0.000376176
0.000377024
0.000377873
0.000378724
0.000379575
0.000380427
0.00038128
0.000382134
0.000382989
0.000383845
0.000384701
0.000385559
0.000386418
0.000387278
0.000388138
0.000389
0.000389863
0.000390726
0.000391591
0.000392456
0.000393323
0.00039419
0.000395058
0.000395928
0.000396798
0.000397669
0.000398541
0.000399414
0.000400289
0.000401164
0.00040204
0.000402917
0.000403794
0.000404673
0.000405553
0.000406434
0.000407316
0.000408198
0.000409082
0.000409967
0.000410852
0.000411739
0.000412626
0.000413515
0.000414404
0.000415295
0.000416186
0.000417078
0.000417971
0.000418866
0.000419761
0.000420657
0.000421554
0.000422452
0.000423351
0.000424251
0.000425152
0.000426054
0.000426956
0.00042786
0.000428765
0.000429671
0.000430577
0.000431485
0.000432393
0.000433303
0.000434213
0.000435125
0.000436037
0.00043695
0.000437865
0.00043878
0.000439696
0.000440613
0.000441531
0.000442451
0.000443371
0.000444292
0.000445214
0.000446136
0.00044706
0.000447985
0.000448911
0.000449838
0.000450765
0.000451694
0.000452624
0.000453554
0.000454486
0.000455418
0.000456352
0.000457286
0.000458221
0.000459158
0.000460095
0.000461033
0.000461972
0.000462913
0.000463854
0.000464796
0.000465739
0.000466683
0.000467628
0.000468573
0.00046952
0.000470468
0.000471417
0.000472367
0.000473317
0.000474269
0.000475221
0.000476175
0.000477129
0.000478085
0.000479041
0.000479999
0.000480957
0.000481916
0.000482877
0.000483838
0.0004848
0.000485763
0.000486727
0.000487692
0.000488658
0.000489625
0.000490593
0.000491562
0.000492532
0.000493502
0.000494474
0.000495447
0.000496421
0.000497395
0.000498371
0.000499347
0.000500325
0.000501303
0.000502282
0.000503263
0.000504244
0.000505226
0.00050621
0.000507194
0.000508179
0.000509165
0.000510152
0.00051114
0.000512129
0.000513119
0.00051411
0.000515102
0.000516094
0.000517088
0.000518083
0.000519079
0.000520075
0.000521073
0.000522071
0.000523071
0.000524071
0.000525073
0.000526075
0.000527078
0.000528083
0.000529088
0.000530094
0.000531101
0.000532109
0.000533118
0.000534128
0.000535139
0.000536151
0.000537164
0.000538178
0.000539193
0.000540209
0.000541225
0.000542243
0.000543262
0.000544281
0.000545302
0.000546323
0.000547346
0.000548369
0.000549394
0.000550419
0.000551445
0.000552472
0.000553501
0.00055453
0.00055556
0.000556591
0.000557623
0.000558656
0.00055969
0.000560725
0.000561761
0.000562798
0.000563835
0.000564874
0.000565914
0.000566954
0.000567996
0.000569039
0.000570082
0.000571127
0.000572172
0.000573219
0.000574266
0.000575314
0.000576363
0.000577414
0.000578465
0.000579517
0.00058057
0.000581624
0.000582679
0.000583735
0.000584792
0.00058585
0.000586909
0.000587969
0.000589029
0.000590091
0.000591154
0.000592217
0.000593282
0.000594347
0.000595414
0.000596481
0.00059755
0.000598619
0.00059969
0.000600761
0.000601833
0.000602906
0.00060398
0.000605056
0.000606132
0.000607209
0.000608287
0.000609366
0.000610446
0.000611526
0.000612608
0.000613691
0.000614775
0.000615859
0.000616945
0.000618032
0.000619119
0.000620208
0.000621297
0.000622388
0.000623479
0.000624571
0.000625665
0.000626759
0.000627854
0.00062895
0.000630047
0.000631146
0.000632245
0.000633345
0.000634446
0.000635548
0.00063665
0.000637754
0.000638859
0.000639965
0.000641071
0.000642179
0.000643288
0.000644397
0.000645508
0.000646619
0.000647732
0.000648845
0.00064996
0.000651075
0.000652191
0.000653308
0.000654427
0.000655546
0.000656666
0.000657787
0.000658909
0.000660032
0.000661156
0.000662281
0.000663407
0.000664533
0.000665661
0.00066679
0.00066792
0.00066905
0.000670182
0.000671314
0.000672448
0.000673582
0.000674718
0.000675854
0.000676992
0.00067813
0.000679269
0.000680409
0.00068155
0.000682693
0.000683836
0.00068498
0.000686125
0.000687271
0.000688418
0.000689565
0.000690714
0.000691864
0.000693015
0.000694167
0.000695319
0.000696473
0.000697627
0.000698783
0.000699939
0.000701097
0.000702255
0.000703415
0.000704575
0.000705736
0.000706898
0.000708062
0.000709226
0.000710391
0.000711557
0.000712724
0.000713892
0.000715061
0.000716231
0.000717402
0.000718573
0.000719746
0.00072092
0.000722095
0.00072327
0.000724447
0.000725624
0.000726803
0.000727982
0.000729163
0.000730344
0.000731526
0.00073271
0.000733894
0.000735079
0.000736265
0.000737452
0.000738641
0.00073983
0.00074102
0.00074221
0.000743402
0.000744595
0.000745789
0.000746984
0.00074818
0.000749376
0.000750574
0.000751773
0.000752972
0.000754173
0.000755374
0.000756577
0.00075778
0.000758984
0.00076019
0.000761396
0.000762603
0.000763811
0.00076502
0.000766231
0.000767442
0.000768654
0.000769867
0.00077108
0.000772295
0.000773511
0.000774728
0.000775946
0.000777164
0.000778384
0.000779605
0.000780826
0.000782049
0.000783272
0.000784497
0.000785722
0.000786949
0.000788176
0.000789404
0.000790633
0.000791864
0.000793095
0.000794327
0.00079556
0.000796794
0.000798029
0.000799265
0.000800502
0.00080174
0.000802979
0.000804218
0.000805459
0.000806701
0.000807943
0.000809187
0.000810432
0.000811677
0.000812924
0.000814171
0.000815419
0.000816669
0.000817919
0.00081917
0.000820422
0.000821676
0.00082293
0.000824185
0.000825441
0.000826698
0.000827956
0.000829215
0.000830475
0.000831735
0.000832997
0.00083426
0.000835524
0.000836788
0.000838054
0.000839321
0.000840588
0.000841857
0.000843126
0.000844396
0.000845668
0.00084694
0.000848213
0.000849488
0.000850763
0.000852039
0.000853316
0.000854594
0.000855873
0.000857153
0.000858434
0.000859716
0.000860999
0.000862283
0.000863567
0.000864853
0.00086614
0.000867428
0.000868716
0.000870006
0.000871296
0.000872588
0.00087388
0.000875173
0.000876468
0.000877763
0.000879059
0.000880357
0.000881655
0.000882954
0.000884254
0.000885555
0.000886857
0.00088816
0.000889464
0.000890769
0.000892075
0.000893381
0.000894689
0.000895998
0.000897307
0.000898618
0.00089993
0.000901242
0.000902556
0.00090387
0.000905185
0.000906502
0.000907819
0.000909137
0.000910457
0.000911777
0.000913098
0.00091442
0.000915743
0.000917067
0.000918392
0.000919718
0.000921045
0.000922373
0.000923702
0.000925031
0.000926362
0.000927694
0.000929026
0.00093036
0.000931695
0.00093303
0.000934366
0.000935704
0.000937042
0.000938382
0.000939722
0.000941063
0.000942405
0.000943749
0.000945093
0.000946438
0.000947784
0.000949131
0.000950479
0.000951828
0.000953177
0.000954528
0.00095588
0.000957233
0.000958587
0.000959941
0.000961297
0.000962653
0.000964011
0.000965369
0.000966729
0.000968089
0.000969451
0.000970813
0.000972176
0.00097354
0.000974905
0.000976272
0.000977639
0.000979007
0.000980376
0.000981746
0.000983117
0.000984489
0.000985861
0.000987235
0.00098861
0.000989986
0.000991362
0.00099274
0.000994119
0.000995498
0.000996879
0.00099826
0.000999642
0.00100103
0.00100241
0.0010038
0.00100518
0.00100657
0.00100796
0.00100935
0.00101074
0.00101213
0.00101352
0.00101491
0.00101631
0.0010177
0.0010191
0.00102049
0.00102189
0.00102329
0.00102469
0.00102609
0.00102749
0.00102889
0.0010303
0.0010317
0.00103311
0.00103451
0.00103592
0.00103733
0.00103874
0.00104015
0.00104156
0.00104297
0.00104439
0.0010458
0.00104721
0.00104863
0.00105005
0.00105146
0.00105288
0.0010543
0.00105572
0.00105715
0.00105857
0.00105999
0.00106142
0.00106284
0.00106427
0.0010657
0.00106712
0.00106855
0.00106998
0.00107141
0.00107285
0.00107428
0.00107571
0.00107715
0.00107859
0.00108002
0.00108146
0.0010829
0.00108434
0.00108578
0.00108722
0.00108866
0.00109011
0.00109155
0.001093
0.00109444
0.00109589
0.00109734
0.00109879
0.00110024
0.00110169
0.00110314
0.0011046
0.00110605
0.00110751
0.00110896
0.00111042
0.00111188
0.00111334
0.0011148
0.00111626
0.00111772
0.00111918
0.00112065
0.00112211
0.00112358
0.00112504
0.00112651
0.00112798
0.00112945
0.00113092
0.00113239
0.00113386
0.00113534
0.00113681
0.00113829
0.00113976
0.00114124
0.00114272
0.0011442
0.00114568
0.00114716
0.00114864
0.00115012
0.00115161
0.00115309
0.00115458
0.00115606
0.00115755
0.00115904
0.00116053
0.00116202
0.00116351
0.00116501
0.0011665
0.00116799
0.00116949
0.00117099
0.00117248
0.00117398
0.00117548
0.00117698
0.00117848
0.00117998
0.00118149
0.00118299
0.0011845
0.001186
0.00118751
0.00118902
0.00119052
0.00119203
0.00119355
0.00119506
0.00119657
0.00119808
0.0011996
0.00120111
0.00120263
0.00120415
0.00120567
0.00120718
0.0012087
0.00121023
0.00121175
0.00121327
0.0012148
0.00121632
0.00121785
0.00121937
0.0012209
0.00122243
0.00122396
0.00122549
0.00122702
0.00122856
0.00123009
0.00123162
0.00123316
0.0012347
0.00123623
0.00123777
0.00123931
0.00124085
0.00124239
0.00124394
0.00124548
0.00124702
0.00124857
0.00125011
0.00125166
0.00125321
0.00125476
0.00125631
0.00125786
0.00125941
0.00126096
0.00126252
0.00126407
0.00126563
0.00126718
0.00126874
0.0012703
0.00127186
0.00127342
0.00127498
0.00127654
0.00127811
0.00127967
0.00128124
0.0012828
0.00128437
0.00128594
0.00128751
0.00128908
0.00129065
0.00129222
0.00129379
0.00129537
0.00129694
0.00129852
0.0013001
0.00130167
0.00130325
0.00130483
0.00130641
0.00130799
0.00130958
0.00131116
0.00131274
0.00131433
0.00131592
0.0013175
0.00131909
0.00132068
0.00132227
0.00132386
0.00132545
0.00132705
0.00132864
0.00133024
0.00133183
0.00133343
0.00133503
0.00133662
0.00133822
0.00133983
0.00134143
0.00134303
0.00134463
0.00134624
0.00134784
0.00134945
0.00135106
0.00135267
0.00135427
0.00135588
0.0013575
0.00135911
0.00136072
0.00136234
0.00136395
0.00136557
0.00136718
0.0013688
0.00137042
0.00137204
0.00137366
0.00137528
0.00137691
0.00137853
0.00138015
0.00138178
0.00138341
0.00138503
0.00138666
0.00138829
0.00138992
0.00139155
0.00139318
0.00139482
0.00139645
0.00139809
0.00139972
0.00140136
0.001403
0.00140464
0.00140628
0.00140792
0.00140956
0.0014112
0.00141285
0.00141449
0.00141614
0.00141778
0.00141943
0.00142108
0.00142273
0.00142438
0.00142603
0.00142768
0.00142934
0.00143099
0.00143265
0.0014343
0.00143596
0.00143762
0.00143928
0.00144094
0.0014426
0.00144426
0.00144592
0.00144759
0.00144925
0.00145092
0.00145258
0.00145425
0.00145592
0.00145759
0.00145926
0.00146093
0.00146261
0.00146428
0.00146595
0.00146763
0.0014693
0.00147098
0.00147266
0.00147434
0.00147602
0.0014777
0.00147938
0.00148107
0.00148275
0.00148443
0.00148612
0.00148781
0.0014895
0.00149118
0.00149287
0.00149456
0.00149626
0.00149795
0.00149964
0.00150134
0.00150303
0.00150473
0.00150643
0.00150812
0.00150982
0.00151152
0.00151323
0.00151493
0.00151663
0.00151833
0.00152004
0.00152175
0.00152345
0.00152516
0.00152687
0.00152858
0.00153029
0.001532
0.00153371
0.00153543
0.00153714
0.00153886
0.00154057
0.00154229
0.00154401
0.00154573
0.00154745
0.00154917
0.00155089
0.00155262
0.00155434
0.00155607
0.00155779
0.00155952
0.00156125
0.00156298
0.00156471
0.00156644
0.00156817
0.0015699
0.00157164
0.00157337
0.00157511
0.00157684
0.00157858
0.00158032
0.00158206
0.0015838
0.00158554
0.00158728
0.00158903
0.00159077
0.00159252
0.00159426
0.00159601
0.00159776
0.00159951
0.00160126
0.00160301
0.00160476
0.00160651
0.00160827
0.00161002
0.00161178
0.00161353
0.00161529
0.00161705
0.00161881
0.00162057
0.00162233
0.00162409
0.00162586
0.00162762
0.00162939
0.00163115
0.00163292
0.00163469
0.00163646
0.00163823
0.00164
0.00164177
0.00164354
0.00164532
0.00164709
0.00164887
0.00165065
0.00165242
0.0016542
0.00165598
0.00165776
0.00165954
0.00166133
0.00166311
0.0016649
0.00166668
0.00166847
0.00167025
0.00167204
0.00167383
0.00167562
0.00167741
0.00167921
0.001681
0.00168279
0.00168459
0.00168638
0.00168818
0.00168998
0.00169178
0.00169358
0.00169538
0.00169718
0.00169898
0.00170079
0.00170259
0.0017044
0.0017062
0.00170801
0.00170982
0.00171163
0.00171344
0.00171525
0.00171706
0.00171888
0.00172069
0.0017225
0.00172432
0.00172614
0.00172796
0.00172978
0.00173159
0.00173342
0.00173524
0.00173706
0.00173888
0.00174071
0.00174253
0.00174436
0.00174619
0.00174802
0.00174985
0.00175168
0.00175351
0.00175534
0.00175717
0.00175901
0.00176084
0.00176268
0.00176452
0.00176636
0.00176819
0.00177003
0.00177188
0.00177372
0.00177556
0.0017774
0.00177925
0.00178109
0.00178294
0.00178479
0.00178664
0.00178849
0.00179034
0.00179219
0.00179404
0.0017959
0.00179775
0.00179961
0.00180146
0.00180332
0.00180518
0.00180704
0.0018089
0.00181076
0.00181262
0.00181448
0.00181635
0.00181821
0.00182008
0.00182194
0.00182381
0.00182568
0.00182755
0.00182942
0.00183129
0.00183317
0.00183504
0.00183691
0.00183879
0.00184067
0.00184254
0.00184442
0.0018463
0.00184818
0.00185006
0.00185194
0.00185383
0.00185571
0.0018576
0.00185948
0.00186137
0.00186326
0.00186515
0.00186704
0.00186893
0.00187082
0.00187271
0.0018746
0.0018765
0.00187839
0.00188029
0.00188219
0.00188409
0.00188599
0.00188789
0.00188979
0.00189169
0.00189359
0.0018955
0.0018974
0.00189931
0.00190122
0.00190312
0.00190503
0.00190694
0.00190885
0.00191077
0.00191268
0.00191459
0.00191651
0.00191842
0.00192034
0.00192226
0.00192418
0.00192609
0.00192802
0.00192994
0.00193186
0.00193378
0.00193571
0.00193763
0.00193956
0.00194149
0.00194341
0.00194534
0.00194727
0.0019492
0.00195114
0.00195307
0.001955
0.00195694
0.00195887
0.00196081
0.00196275
0.00196469
0.00196663
0.00196857
0.00197051
0.00197245
0.00197439
0.00197634
0.00197828
0.00198023
0.00198218
0.00198412
0.00198607
0.00198802
0.00198998
0.00199193
0.00199388
0.00199583
0.00199779
0.00199974
0.0020017
0.00200366
0.00200562
0.00200758
0.00200954
0.0020115
0.00201346
0.00201543
0.00201739
0.00201936
0.00202132
0.00202329
0.00202526
0.00202723
0.0020292
0.00203117
0.00203314
0.00203511
0.00203709
0.00203906
0.00204104
0.00204302
0.00204499
0.00204697
0.00204895
0.00205093
0.00205292
0.0020549
0.00205688
0.00205887
0.00206085
0.00206284
0.00206483
0.00206681
0.0020688
0.00207079
0.00207279
0.00207478
0.00207677
0.00207876
0.00208076
0.00208276
0.00208475
0.00208675
0.00208875
0.00209075
0.00209275
0.00209475
0.00209676
0.00209876
0.00210076
0.00210277
0.00210478
0.00210678
0.00210879
0.0021108
0.00211281
0.00211482
0.00211684
0.00211885
0.00212086
0.00212288
0.0021249
0.00212691
0.00212893
0.00213095
0.00213297
0.00213499
0.00213701
0.00213904
0.00214106
0.00214308
0.00214511
0.00214714
0.00214916
0.00215119
0.00215322
0.00215525
0.00215728
0.00215932
0.00216135
0.00216338
0.00216542
0.00216746
0.00216949
0.00217153
0.00217357
0.00217561
0.00217765
0.00217969
0.00218174
0.00218378
0.00218583
0.00218787
0.00218992
0.00219197
0.00219402
0.00219607
0.00219812
0.00220017
0.00220222
0.00220427
0.00220633
0.00220838
0.00221044
0.0022125
0.00221456
0.00221661
0.00221868
0.00222074
0.0022228
0.00222486
0.00222693
0.00222899
0.00223106
0.00223312
0.00223519
0.00223726
0.00223933
0.0022414
0.00224347
0.00224555
0.00224762
0.00224969
0.00225177
0.00225385
0.00225592
0.002258
0.00226008
0.00226216
0.00226424
0.00226632
0.00226841
0.00227049
0.00227258
0.00227466
0.00227675
0.00227884
0.00228093
0.00228302
0.00228511
0.0022872
0.00228929
0.00229139
0.00229348
0.00229558
0.00229767
0.00229977
0.00230187
0.00230397
0.00230607
0.00230817
0.00231027
0.00231238
0.00231448
0.00231659
0.00231869
0.0023208
0.00232291
0.00232502
0.00232713
0.00232924
0.00233135
0.00233346
0.00233558
0.00233769
0.00233981
0.00234192
0.00234404
0.00234616
0.00234828
0.0023504
0.00235252
0.00235464
0.00235677
0.00235889
0.00236102
0.00236314
0.00236527
0.0023674
0.00236953
0.00237166
0.00237379
0.00237592
0.00237805
0.00238019
0.00238232
0.00238446
0.0023866
0.00238873
0.00239087
0.00239301
0.00239515
0.00239729
0.00239944
0.00240158
0.00240373
0.00240587
0.00240802
0.00241016
0.00241231
0.00241446
0.00241661
0.00241876
0.00242092
0.00242307
0.00242522
0.00242738
0.00242953
0.00243169
0.00243385
0.00243601
0.00243817
0.00244033
0.00244249
0.00244465
0.00244682
0.00244898
0.00245115
0.00245331
0.00245548
0.00245765
0.00245982
0.00246199
0.00246416
0.00246633
0.00246851
0.00247068
0.00247285
0.00247503
0.00247721
0.00247939
0.00248156
0.00248374
0.00248593
0.00248811
0.00249029
0.00249247
0.00249466
0.00249684
0.00249903
0.00250122
0.00250341
0.0025056
0.00250779
0.00250998
0.00251217
0.00251436
0.00251656
0.00251875
0.00252095
0.00252315
0.00252534
0.00252754
0.00252974
0.00253194
0.00253415
0.00253635
0.00253855
0.00254076
0.00254296
0.00254517
0.00254738
0.00254959
0.0025518
0.00255401
0.00255622
0.00255843
0.00256064
0.00256286
0.00256507
0.00256729
0.00256951
0.00257173
0.00257395
0.00257617
0.00257839
0.00258061
0.00258283
0.00258506
0.00258728
0.00258951
0.00259173
0.00259396
0.00259619
0.00259842
0.00260065
0.00260288
0.00260511
0.00260735
0.00260958
0.00261182
0.00261405
0.00261629
0.00261853
0.00262077
0.00262301
0.00262525
0.00262749
0.00262974
0.00263198
0.00263423
0.00263647
0.00263872
0.00264097
0.00264321
0.00264546
0.00264772
0.00264997
0.00265222
0.00265447
0.00265673
0.00265898
0.00266124
0.0026635
0.00266576
0.00266802
0.00267028
0.00267254
0.0026748
0.00267706
0.00267933
0.00268159
0.00268386
0.00268613
0.00268839
0.00269066
0.00269293
0.0026952
0.00269747
0.00269975
0.00270202
0.0027043
0.00270657
0.00270885
0.00271113
0.0027134
0.00271568
0.00271796
0.00272025
0.00272253
0.00272481
0.0027271
0.00272938
0.00273167
0.00273395
0.00273624
0.00273853
0.00274082
0.00274311
0.0027454
0.0027477
0.00274999
0.00275229
0.00275458
0.00275688
0.00275918
0.00276148
0.00276377
0.00276608
0.00276838
0.00277068
0.00277298
0.00277529
0.00277759
0.0027799
0.00278221
0.00278451
0.00278682
0.00278913
0.00279144
0.00279376
0.00279607
0.00279838
0.0028007
0.00280301
0.00280533
0.00280765
0.00280997
0.00281229
0.00281461
0.00281693
0.00281925
0.00282158
0.0028239
0.00282623
0.00282855
0.00283088
0.00283321
0.00283554
0.00283787
0.0028402
0.00284253
0.00284486
0.0028472
0.00284953
0.00285187
0.00285421
0.00285654
0.00285888
0.00286122
0.00286356
0.00286591
0.00286825
0.00287059
0.00287294
0.00287528
0.00287763
0.00287998
0.00288232
0.00288467
0.00288702
0.00288938
0.00289173
0.00289408
0.00289644
0.00289879
0.00290115
0.0029035
0.00290586
0.00290822
0.00291058
0.00291294
0.0029153
0.00291767
0.00292003
0.00292239
0.00292476
0.00292713
0.00292949
0.00293186
0.00293423
0.0029366
0.00293897
0.00294135
0.00294372
0.00294609
0.00294847
0.00295085
0.00295322
0.0029556
0.00295798
0.00296036
0.00296274
0.00296512
0.00296751
0.00296989
0.00297227
0.00297466
0.00297705
0.00297944
0.00298182
0.00298421
0.0029866
0.002989
0.00299139
0.00299378
0.00299618
0.00299857
0.00300097
0.00300336
0.00300576
0.00300816
0.00301056
0.00301296
0.00301537
0.00301777
0.00302017
0.00302258
0.00302498
0.00302739
0.0030298
0.00303221
0.00303462
0.00303703
0.00303944
0.00304185
0.00304427
0.00304668
0.0030491
0.00305151
0.00305393
0.00305635
0.00305877
0.00306119
0.00306361
0.00306603
0.00306845
0.00307088
0.0030733
0.00307573
0.00307816
0.00308058