/*--------------------------------*- C++ -*----------------------------------*\
| =========                 |                                                 |
| \\      /  F ield         | OpenFOAM: The Open Source CFD Toolbox           |
|  \\    /   O peration     | Version:  2206                                  |
|   \\  /    A nd           | Website:  www.openfoam.com                      |
|    \\/     M anipulation  |                                                 |
\*---------------------------------------------------------------------------*/
FoamFile
{
    version     2.0;
    format      ascii;
    arch        "LSB;label=32;scalar=64";
    class       volScalarField;
    location    "10";
    object      p;
}
// * * * * * * * * * * * * * * * * * * * * * * * * * * * * * * * * * * * * * //

dimensions      [0 2 -2 0 0 0 0];

internalField   nonuniform List<scalar> 
100000
(
-1.72199e-08
1.67828e-07
5.49234e-08
2.05534e-07
2.7066e-07
3.25095e-07
3.32313e-07
3.56168e-07
3.56749e-07
3.65596e-07
3.65102e-07
3.6806e-07
3.66695e-07
3.67661e-07
3.65957e-07
3.66112e-07
3.64059e-07
3.63914e-07
3.62156e-07
3.62093e-07
3.60636e-07
3.60394e-07
3.59271e-07
3.59363e-07
3.58646e-07
3.59115e-07
3.58765e-07
3.59199e-07
3.59215e-07
3.60038e-07
3.60535e-07
3.61644e-07
3.62213e-07
3.63609e-07
3.64648e-07
3.66454e-07
3.67844e-07
3.69657e-07
3.71386e-07
3.73611e-07
3.7579e-07
3.78315e-07
3.80533e-07
3.8335e-07
3.86006e-07
3.89231e-07
3.92206e-07
3.95432e-07
3.98716e-07
4.02346e-07
4.06051e-07
4.09968e-07
4.13685e-07
4.17882e-07
4.22011e-07
4.26603e-07
4.31026e-07
4.35606e-07
4.40315e-07
4.45285e-07
4.50393e-07
4.55637e-07
4.60737e-07
4.66249e-07
4.71741e-07
4.77635e-07
4.83403e-07
4.89273e-07
4.95312e-07
5.01559e-07
5.07981e-07
5.14491e-07
5.20892e-07
5.27649e-07
5.34466e-07
5.41518e-07
5.48748e-07
5.56046e-07
5.63248e-07
5.70799e-07
5.78373e-07
5.86291e-07
5.94122e-07
6.02002e-07
6.10086e-07
6.18331e-07
6.26782e-07
6.35276e-07
6.43688e-07
6.52428e-07
6.61205e-07
6.70305e-07
6.79331e-07
6.88387e-07
6.97659e-07
7.07073e-07
7.16705e-07
7.26363e-07
7.35951e-07
7.45849e-07
7.55795e-07
7.66049e-07
7.76238e-07
7.86443e-07
7.96873e-07
8.07432e-07
8.18217e-07
8.29015e-07
8.3975e-07
8.50785e-07
8.61875e-07
8.73261e-07
8.84589e-07
8.95923e-07
9.07488e-07
9.19172e-07
9.31088e-07
9.43008e-07
9.54874e-07
9.67017e-07
9.79269e-07
9.91684e-07
1.00432e-06
1.01696e-06
1.02955e-06
1.04242e-06
1.05535e-06
1.06857e-06
1.08174e-06
1.0949e-06
1.1083e-06
1.12181e-06
1.13555e-06
1.14929e-06
1.16298e-06
1.17695e-06
1.19099e-06
1.20531e-06
1.21958e-06
1.23383e-06
1.24833e-06
1.26293e-06
1.27778e-06
1.29261e-06
1.30739e-06
1.32245e-06
1.33758e-06
1.35299e-06
1.36835e-06
1.38369e-06
1.39928e-06
1.41497e-06
1.4309e-06
1.44681e-06
1.46268e-06
1.47883e-06
1.49504e-06
1.51153e-06
1.52797e-06
1.5444e-06
1.56107e-06
1.57783e-06
1.59485e-06
1.61184e-06
1.62879e-06
1.64601e-06
1.66331e-06
1.68087e-06
1.69839e-06
1.71589e-06
1.73363e-06
1.75151e-06
1.76951e-06
1.78777e-06
1.80599e-06
1.82418e-06
1.84263e-06
1.86117e-06
1.87995e-06
1.89871e-06
1.91744e-06
1.93643e-06
1.95549e-06
1.97482e-06
1.99411e-06
2.01337e-06
2.03289e-06
2.05249e-06
2.07235e-06
2.09218e-06
2.11197e-06
2.13203e-06
2.15216e-06
2.17255e-06
2.19291e-06
2.21324e-06
2.23382e-06
2.25449e-06
2.27542e-06
2.29631e-06
2.31717e-06
2.33829e-06
2.35949e-06
2.38095e-06
2.40237e-06
2.42376e-06
2.44541e-06
2.46714e-06
2.48913e-06
2.51109e-06
2.53301e-06
2.55519e-06
2.57745e-06
2.59997e-06
2.62246e-06
2.64491e-06
2.66761e-06
2.69044e-06
2.7134e-06
2.73661e-06
2.75979e-06
2.78293e-06
2.80633e-06
2.82981e-06
2.85355e-06
2.87726e-06
2.90093e-06
2.92486e-06
2.94887e-06
2.97314e-06
2.99737e-06
3.02157e-06
3.04603e-06
3.07057e-06
3.09537e-06
3.12013e-06
3.14486e-06
3.16985e-06
3.19492e-06
3.22024e-06
3.24554e-06
3.2708e-06
3.29631e-06
3.32191e-06
3.34776e-06
3.37359e-06
3.39937e-06
3.42542e-06
3.45154e-06
3.47793e-06
3.50427e-06
3.53059e-06
3.55716e-06
3.58382e-06
3.61073e-06
3.63761e-06
3.66445e-06
3.69155e-06
3.71873e-06
3.74617e-06
3.77357e-06
3.80095e-06
3.82857e-06
3.85628e-06
3.88425e-06
3.91218e-06
3.94008e-06
3.96823e-06
3.9965e-06
4.02491e-06
4.05355e-06
4.08217e-06
4.11076e-06
4.1396e-06
4.16852e-06
4.1977e-06
4.22684e-06
4.25595e-06
4.28532e-06
4.31477e-06
4.34447e-06
4.37415e-06
4.40378e-06
4.43368e-06
4.46365e-06
4.49388e-06
4.52408e-06
4.55425e-06
4.58467e-06
4.61517e-06
4.64593e-06
4.67665e-06
4.70735e-06
4.73829e-06
4.76932e-06
4.8006e-06
4.83186e-06
4.86307e-06
4.89455e-06
4.9261e-06
4.95791e-06
4.98969e-06
5.02143e-06
5.05343e-06
5.08552e-06
5.11785e-06
5.15016e-06
5.18242e-06
5.21495e-06
5.24756e-06
5.28042e-06
5.31325e-06
5.34605e-06
5.37909e-06
5.41226e-06
5.44556e-06
5.47911e-06
5.51262e-06
5.5461e-06
5.57983e-06
5.61365e-06
5.64772e-06
5.68176e-06
5.71577e-06
5.75003e-06
5.78437e-06
5.81897e-06
5.85354e-06
5.88807e-06
5.92285e-06
5.95772e-06
5.99285e-06
6.02794e-06
6.06299e-06
6.09831e-06
6.1337e-06
6.16935e-06
6.20496e-06
6.24055e-06
6.27638e-06
6.3123e-06
6.34848e-06
6.38462e-06
6.42073e-06
6.45709e-06
6.49353e-06
6.53024e-06
6.5669e-06
6.60354e-06
6.64042e-06
6.67739e-06
6.71462e-06
6.75181e-06
6.78897e-06
6.82638e-06
6.86388e-06
6.90163e-06
6.93934e-06
6.97703e-06
7.01497e-06
7.05299e-06
7.09126e-06
7.12951e-06
7.16772e-06
7.20617e-06
7.24475e-06
7.28347e-06
7.32242e-06
7.36135e-06
7.40024e-06
7.43939e-06
7.47862e-06
7.5181e-06
7.55755e-06
7.59697e-06
7.63664e-06
7.67639e-06
7.7164e-06
7.75638e-06
7.79632e-06
7.83651e-06
7.87679e-06
7.91733e-06
7.95782e-06
7.99829e-06
8.03901e-06
8.07982e-06
8.12087e-06
8.1619e-06
8.20289e-06
8.24414e-06
8.28546e-06
8.32705e-06
8.3686e-06
8.41012e-06
8.45188e-06
8.49374e-06
8.53585e-06
8.57792e-06
8.61996e-06
8.66226e-06
8.70463e-06
8.74727e-06
8.78987e-06
8.83243e-06
8.87525e-06
8.91816e-06
8.96131e-06
9.00444e-06
9.04753e-06
9.09087e-06
9.13433e-06
9.17793e-06
9.22176e-06
9.26557e-06
9.30934e-06
9.35337e-06
9.39748e-06
9.44185e-06
9.48617e-06
9.53047e-06
9.57502e-06
9.61966e-06
9.66455e-06
9.70941e-06
9.75423e-06
9.7993e-06
9.84446e-06
9.88988e-06
9.93525e-06
9.9806e-06
1.00262e-05
1.00719e-05
1.01178e-05
1.01637e-05
1.02096e-05
1.02557e-05
1.03019e-05
1.03484e-05
1.03948e-05
1.04412e-05
1.04879e-05
1.05346e-05
1.05816e-05
1.06285e-05
1.06755e-05
1.07226e-05
1.07699e-05
1.08174e-05
1.08649e-05
1.09123e-05
1.096e-05
1.10078e-05
1.10558e-05
1.11039e-05
1.11518e-05
1.12e-05
1.12483e-05
1.12969e-05
1.13454e-05
1.13939e-05
1.14427e-05
1.14915e-05
1.15405e-05
1.15898e-05
1.1639e-05
1.16882e-05
1.17376e-05
1.17871e-05
1.18369e-05
1.18866e-05
1.19363e-05
1.19863e-05
1.20363e-05
1.20866e-05
1.21368e-05
1.21871e-05
1.22375e-05
1.22881e-05
1.23389e-05
1.23897e-05
1.24405e-05
1.24915e-05
1.25425e-05
1.25939e-05
1.26452e-05
1.26965e-05
1.2748e-05
1.27996e-05
1.28515e-05
1.29033e-05
1.29551e-05
1.30071e-05
1.30593e-05
1.31117e-05
1.3164e-05
1.32163e-05
1.32689e-05
1.33216e-05
1.33745e-05
1.34274e-05
1.34802e-05
1.35333e-05
1.35865e-05
1.36399e-05
1.36933e-05
1.37467e-05
1.38003e-05
1.38541e-05
1.39079e-05
1.39621e-05
1.40161e-05
1.40702e-05
1.41245e-05
1.41789e-05
1.42335e-05
1.42881e-05
1.43427e-05
1.43976e-05
1.44525e-05
1.45076e-05
1.45628e-05
1.46179e-05
1.46732e-05
1.47287e-05
1.47843e-05
1.484e-05
1.48956e-05
1.49515e-05
1.50075e-05
1.50637e-05
1.51199e-05
1.5176e-05
1.52324e-05
1.52889e-05
1.53456e-05
1.54024e-05
1.5459e-05
1.5516e-05
1.5573e-05
1.56302e-05
1.56875e-05
1.57447e-05
1.58021e-05
1.58596e-05
1.59174e-05
1.59752e-05
1.60329e-05
1.60909e-05
1.61489e-05
1.62073e-05
1.62655e-05
1.63238e-05
1.63823e-05
1.64409e-05
1.64997e-05
1.65585e-05
1.66173e-05
1.66763e-05
1.67354e-05
1.67947e-05
1.68542e-05
1.69137e-05
1.69731e-05
1.70329e-05
1.70926e-05
1.71527e-05
1.72127e-05
1.72727e-05
1.73329e-05
1.73932e-05
1.74538e-05
1.75143e-05
1.75748e-05
1.76356e-05
1.76964e-05
1.77575e-05
1.78185e-05
1.78796e-05
1.79408e-05
1.80022e-05
1.80638e-05
1.81254e-05
1.81869e-05
1.82488e-05
1.83106e-05
1.83728e-05
1.84349e-05
1.8497e-05
1.85593e-05
1.86217e-05
1.86843e-05
1.8747e-05
1.88096e-05
1.88724e-05
1.89354e-05
1.89985e-05
1.90617e-05
1.91248e-05
1.91882e-05
1.92516e-05
1.93154e-05
1.9379e-05
1.94427e-05
1.95066e-05
1.95706e-05
1.96347e-05
1.96991e-05
1.97635e-05
1.98278e-05
1.98924e-05
1.9957e-05
2.0022e-05
2.00868e-05
2.01517e-05
2.02168e-05
2.0282e-05
2.03474e-05
2.04128e-05
2.04782e-05
2.05438e-05
2.06095e-05
2.06755e-05
2.07414e-05
2.08073e-05
2.08735e-05
2.09397e-05
2.10062e-05
2.10727e-05
2.11391e-05
2.12058e-05
2.12725e-05
2.13395e-05
2.14065e-05
2.14735e-05
2.15407e-05
2.16079e-05
2.16755e-05
2.1743e-05
2.18105e-05
2.18782e-05
2.1946e-05
2.2014e-05
2.20821e-05
2.21501e-05
2.22183e-05
2.22866e-05
2.23552e-05
2.24238e-05
2.24923e-05
2.25611e-05
2.26299e-05
2.2699e-05
2.27681e-05
2.28372e-05
2.29064e-05
2.29759e-05
2.30454e-05
2.31152e-05
2.31849e-05
2.32547e-05
2.33246e-05
2.33947e-05
2.3465e-05
2.35353e-05
2.36055e-05
2.36761e-05
2.37466e-05
2.38175e-05
2.38883e-05
2.3959e-05
2.40301e-05
2.41012e-05
2.41725e-05
2.42439e-05
2.43152e-05
2.43867e-05
2.44583e-05
2.45302e-05
2.46021e-05
2.46739e-05
2.4746e-05
2.48181e-05
2.48905e-05
2.49629e-05
2.50353e-05
2.51079e-05
2.51805e-05
2.52535e-05
2.53264e-05
2.53992e-05
2.54724e-05
2.55456e-05
2.5619e-05
2.56925e-05
2.57658e-05
2.58395e-05
2.59132e-05
2.59872e-05
2.60611e-05
2.61351e-05
2.62092e-05
2.62835e-05
2.63579e-05
2.64326e-05
2.65072e-05
2.65818e-05
2.66567e-05
2.67316e-05
2.68068e-05
2.68819e-05
2.69571e-05
2.70324e-05
2.71079e-05
2.71836e-05
2.72593e-05
2.73349e-05
2.74108e-05
2.74868e-05
2.7563e-05
2.76393e-05
2.77154e-05
2.77918e-05
2.78683e-05
2.79451e-05
2.80218e-05
2.80985e-05
2.81755e-05
2.82525e-05
2.83298e-05
2.8407e-05
2.84842e-05
2.85617e-05
2.86393e-05
2.87171e-05
2.87949e-05
2.88726e-05
2.89506e-05
2.90287e-05
2.9107e-05
2.91853e-05
2.92636e-05
2.93421e-05
2.94207e-05
2.94995e-05
2.95784e-05
2.96571e-05
2.97362e-05
2.98153e-05
2.98947e-05
2.9974e-05
3.00533e-05
3.01329e-05
3.02126e-05
3.02924e-05
3.03725e-05
3.04525e-05
3.05325e-05
3.06127e-05
3.06931e-05
3.07737e-05
3.08542e-05
3.09347e-05
3.10155e-05
3.10963e-05
3.11774e-05
3.12585e-05
3.13396e-05
3.14209e-05
3.15022e-05
3.15839e-05
3.16655e-05
3.1747e-05
3.18289e-05
3.19108e-05
3.19929e-05
3.2075e-05
3.21571e-05
3.22395e-05
3.23219e-05
3.24046e-05
3.24872e-05
3.25698e-05
3.26527e-05
3.27357e-05
3.28189e-05
3.2902e-05
3.29852e-05
3.30686e-05
3.3152e-05
3.32358e-05
3.33195e-05
3.34031e-05
3.3487e-05
3.3571e-05
3.36553e-05
3.37395e-05
3.38237e-05
3.39081e-05
3.39927e-05
3.40774e-05
3.41623e-05
3.42472e-05
3.43321e-05
3.44172e-05
3.45024e-05
3.45878e-05
3.46733e-05
3.47587e-05
3.48443e-05
3.493e-05
3.5016e-05
3.5102e-05
3.51879e-05
3.5274e-05
3.53603e-05
3.54468e-05
3.55333e-05
3.56197e-05
3.57064e-05
3.57932e-05
3.58802e-05
3.59672e-05
3.60542e-05
3.61414e-05
3.62287e-05
3.63162e-05
3.64037e-05
3.64912e-05
3.6579e-05
3.66668e-05
3.67549e-05
3.68429e-05
3.69309e-05
3.70192e-05
3.71075e-05
3.71961e-05
3.72847e-05
3.73732e-05
3.7462e-05
3.75509e-05
3.764e-05
3.77291e-05
3.78182e-05
3.79075e-05
3.79969e-05
3.80865e-05
3.81761e-05
3.82657e-05
3.83555e-05
3.84455e-05
3.85356e-05
3.86259e-05
3.87162e-05
3.88065e-05
3.8897e-05
3.89876e-05
3.90784e-05
3.91693e-05
3.92601e-05
3.93511e-05
3.94422e-05
3.95336e-05
3.96249e-05
3.97163e-05
3.98078e-05
3.98995e-05
3.99914e-05
4.00832e-05
4.01751e-05
4.02672e-05
4.03593e-05
4.04518e-05
4.05441e-05
4.06365e-05
4.07291e-05
4.08218e-05
4.09148e-05
4.10077e-05
4.11006e-05
4.11937e-05
4.12869e-05
4.13804e-05
4.14738e-05
4.15672e-05
4.16609e-05
4.17546e-05
4.18486e-05
4.19426e-05
4.20365e-05
4.21307e-05
4.2225e-05
4.23195e-05
4.2414e-05
4.25085e-05
4.26031e-05
4.2698e-05
4.27929e-05
4.28881e-05
4.29833e-05
4.30784e-05
4.31738e-05
4.32693e-05
4.3365e-05
4.34607e-05
4.35564e-05
4.36523e-05
4.37483e-05
4.38445e-05
4.39408e-05
4.40369e-05
4.41334e-05
4.42299e-05
4.43267e-05
4.44234e-05
4.45201e-05
4.46171e-05
4.47141e-05
4.48114e-05
4.49087e-05
4.50059e-05
4.51034e-05
4.5201e-05
4.52988e-05
4.53966e-05
4.54943e-05
4.55924e-05
4.56904e-05
4.57888e-05
4.58871e-05
4.59854e-05
4.60839e-05
4.61825e-05
4.62814e-05
4.63802e-05
4.6479e-05
4.65781e-05
4.66772e-05
4.67766e-05
4.6876e-05
4.69753e-05
4.70749e-05
4.71746e-05
4.72745e-05
4.73744e-05
4.74742e-05
4.75743e-05
4.76745e-05
4.77749e-05
4.78755e-05
4.7976e-05
4.80766e-05
4.81774e-05
4.82782e-05
4.83794e-05
4.84804e-05
4.85815e-05
4.86828e-05
4.87842e-05
4.88858e-05
4.89875e-05
4.9089e-05
4.91909e-05
4.92928e-05
4.9395e-05
4.94971e-05
4.95992e-05
4.97016e-05
4.9804e-05
4.99067e-05
5.00094e-05
5.0112e-05
5.02149e-05
5.03178e-05
5.04211e-05
5.05242e-05
5.06274e-05
5.07308e-05
5.08343e-05
5.0938e-05
5.10417e-05
5.11454e-05
5.12493e-05
5.13533e-05
5.14576e-05
5.15618e-05
5.1666e-05
5.17705e-05
5.1875e-05
5.19798e-05
5.20846e-05
5.21893e-05
5.22943e-05
5.23994e-05
5.25046e-05
5.26101e-05
5.27155e-05
5.28209e-05
5.29266e-05
5.30323e-05
5.31383e-05
5.32443e-05
5.33502e-05
5.34564e-05
5.35626e-05
5.36692e-05
5.37756e-05
5.38821e-05
5.39888e-05
5.40956e-05
5.42026e-05
5.43096e-05
5.44166e-05
5.45238e-05
5.46312e-05
5.47387e-05
5.48463e-05
5.49538e-05
5.50615e-05
5.51693e-05
5.52774e-05
5.53855e-05
5.54935e-05
5.56018e-05
5.57102e-05
5.58188e-05
5.59274e-05
5.60359e-05
5.61447e-05
5.62536e-05
5.63627e-05
5.64718e-05
5.65809e-05
5.66902e-05
5.67996e-05
5.69093e-05
5.70189e-05
5.71285e-05
5.72384e-05
5.73483e-05
5.74585e-05
5.75686e-05
5.76788e-05
5.77891e-05
5.78996e-05
5.80102e-05
5.81211e-05
5.82319e-05
5.83427e-05
5.84538e-05
5.85649e-05
5.86763e-05
5.87877e-05
5.8899e-05
5.90106e-05
5.91222e-05
5.92342e-05
5.9346e-05
5.94579e-05
5.957e-05
5.96822e-05
5.97946e-05
5.9907e-05
6.00194e-05
6.0132e-05
6.02447e-05
6.03577e-05
6.04706e-05
6.05835e-05
6.06967e-05
6.08099e-05
6.09234e-05
6.10368e-05
6.11503e-05
6.12639e-05
6.13777e-05
6.14917e-05
6.16057e-05
6.17196e-05
6.18338e-05
6.19481e-05
6.20626e-05
6.21771e-05
6.22916e-05
6.24063e-05
6.25211e-05
6.26362e-05
6.27512e-05
6.28662e-05
6.29814e-05
6.30968e-05
6.32123e-05
6.3328e-05
6.34438e-05
6.35594e-05
6.36754e-05
6.37914e-05
6.39076e-05
6.40239e-05
6.41401e-05
6.42565e-05
6.4373e-05
6.44898e-05
6.46066e-05
6.47233e-05
6.48403e-05
6.49573e-05
6.50746e-05
6.51919e-05
6.53092e-05
6.54267e-05
6.55442e-05
6.56621e-05
6.57799e-05
6.58977e-05
6.60157e-05
6.61338e-05
6.62521e-05
6.63705e-05
6.64888e-05
6.66073e-05
6.67259e-05
6.68448e-05
6.69637e-05
6.70825e-05
6.72015e-05
6.73207e-05
6.74401e-05
6.75595e-05
6.76788e-05
6.77984e-05
6.79181e-05
6.8038e-05
6.81579e-05
6.82778e-05
6.83979e-05
6.85181e-05
6.86386e-05
6.8759e-05
6.88794e-05
6.9e-05
6.91208e-05
6.92417e-05
6.93628e-05
6.94839e-05
6.9605e-05
6.97263e-05
6.98477e-05
6.99693e-05
7.0091e-05
7.02126e-05
7.03344e-05
7.04563e-05
7.05785e-05
7.07007e-05
7.08228e-05
7.09452e-05
7.10676e-05
7.11903e-05
7.1313e-05
7.14356e-05
7.15585e-05
7.16815e-05
7.18047e-05
7.19279e-05
7.20511e-05
7.21745e-05
7.2298e-05
7.24218e-05
7.25455e-05
7.26692e-05
7.27931e-05
7.29172e-05
7.30414e-05
7.31657e-05
7.32899e-05
7.34144e-05
7.35389e-05
7.36637e-05
7.37885e-05
7.39132e-05
7.40382e-05
7.41633e-05
7.42886e-05
7.44139e-05
7.45391e-05
7.46647e-05
7.47903e-05
7.49161e-05
7.50421e-05
7.5168e-05
7.5294e-05
7.54202e-05
7.55464e-05
7.5673e-05
7.57995e-05
7.59259e-05
7.60527e-05
7.61795e-05
7.63065e-05
7.64335e-05
7.65605e-05
7.66878e-05
7.68151e-05
7.69427e-05
7.70702e-05
7.71977e-05
7.73255e-05
7.74534e-05
7.75815e-05
7.77095e-05
7.78376e-05
7.79659e-05
7.80942e-05
7.82229e-05
7.83514e-05
7.848e-05
7.86088e-05
7.87377e-05
7.88669e-05
7.8996e-05
7.91251e-05
7.92544e-05
7.93838e-05
7.95135e-05
7.96431e-05
7.97728e-05
7.99026e-05
8.00326e-05
8.01628e-05
8.02929e-05
8.04231e-05
8.05534e-05
8.06839e-05
8.08146e-05
8.09453e-05
8.1076e-05
8.12069e-05
8.13379e-05
8.14691e-05
8.16005e-05
8.17318e-05
8.18632e-05
8.19948e-05
8.21264e-05
8.22584e-05
8.23903e-05
8.25221e-05
8.26542e-05
8.27864e-05
8.29189e-05
8.30513e-05
8.31837e-05
8.33163e-05
8.34491e-05
8.3582e-05
8.3715e-05
8.38479e-05
8.3981e-05
8.41143e-05
8.42478e-05
8.43813e-05
8.45147e-05
8.46484e-05
8.47821e-05
8.49162e-05
8.50502e-05
8.51841e-05
8.53183e-05
8.54526e-05
8.55872e-05
8.57217e-05
8.58562e-05
8.59909e-05
8.61257e-05
8.62608e-05
8.63958e-05
8.65308e-05
8.66661e-05
8.68014e-05
8.6937e-05
8.70726e-05
8.72081e-05
8.73439e-05
8.74798e-05
8.76158e-05
8.77521e-05
8.78883e-05
8.80245e-05
8.8161e-05
8.82975e-05
8.84343e-05
8.85711e-05
8.87078e-05
8.88448e-05
8.89819e-05
8.91192e-05
8.92565e-05
8.93938e-05
8.95313e-05
8.96689e-05
8.98067e-05
8.99445e-05
9.00823e-05
9.02204e-05
9.03585e-05
9.04968e-05
9.06352e-05
9.07735e-05
9.0912e-05
9.10507e-05
9.11896e-05
9.13284e-05
9.14673e-05
9.16064e-05
9.17455e-05
9.18849e-05
9.20243e-05
9.21637e-05
9.23033e-05
9.2443e-05
9.25829e-05
9.27228e-05
9.28627e-05
9.30028e-05
9.3143e-05
9.32835e-05
9.34239e-05
9.35643e-05
9.3705e-05
9.38457e-05
9.39867e-05
9.41277e-05
9.42686e-05
9.44098e-05
9.45511e-05
9.46925e-05
9.48342e-05
9.49758e-05
9.51174e-05
9.52593e-05
9.54012e-05
9.55434e-05
9.56856e-05
9.58277e-05
9.59701e-05
9.61125e-05
9.62553e-05
9.6398e-05
9.65406e-05
9.66835e-05
9.68265e-05
9.69697e-05
9.7113e-05
9.72561e-05
9.73996e-05
9.75431e-05
9.76868e-05
9.78306e-05
9.79743e-05
9.81182e-05
9.82623e-05
9.84066e-05
9.85508e-05
9.8695e-05
9.88395e-05
9.89841e-05
9.91289e-05
9.92737e-05
9.94184e-05
9.95634e-05
9.97085e-05
9.98539e-05
9.99992e-05
0.000100144
0.00010029
0.000100436
0.000100581
0.000100727
0.000100873
0.000101019
0.000101165
0.000101312
0.000101458
0.000101605
0.000101751
0.000101898
0.000102045
0.000102192
0.000102339
0.000102486
0.000102633
0.00010278
0.000102928
0.000103075
0.000103223
0.000103371
0.000103519
0.000103667
0.000103815
0.000103963
0.000104111
0.00010426
0.000104408
0.000104557
0.000104705
0.000104854
0.000105003
0.000105152
0.000105301
0.000105451
0.0001056
0.000105749
0.000105899
0.000106049
0.000106198
0.000106348
0.000106498
0.000106648
0.000106798
0.000106949
0.000107099
0.00010725
0.0001074
0.000107551
0.000107702
0.000107853
0.000108004
0.000108155
0.000108306
0.000108457
0.000108609
0.00010876
0.000108912
0.000109064
0.000109216
0.000109368
0.00010952
0.000109672
0.000109824
0.000109977
0.000110129
0.000110282
0.000110435
0.000110588
0.000110741
0.000110894
0.000111047
0.0001112
0.000111353
0.000111507
0.00011166
0.000111814
0.000111968
0.000112122
0.000112276
0.00011243
0.000112584
0.000112738
0.000112893
0.000113047
0.000113202
0.000113357
0.000113512
0.000113667
0.000113822
0.000113977
0.000114132
0.000114287
0.000114443
0.000114598
0.000114754
0.00011491
0.000115066
0.000115222
0.000115378
0.000115534
0.00011569
0.000115847
0.000116003
0.00011616
0.000116317
0.000116474
0.000116631
0.000116788
0.000116945
0.000117102
0.00011726
0.000117417
0.000117575
0.000117733
0.00011789
0.000118048
0.000118206
0.000118364
0.000118523
0.000118681
0.000118839
0.000118998
0.000119157
0.000119316
0.000119474
0.000119633
0.000119792
0.000119952
0.000120111
0.00012027
0.00012043
0.000120589
0.000120749
0.000120909
0.000121069
0.000121229
0.000121389
0.000121549
0.00012171
0.00012187
0.000122031
0.000122191
0.000122352
0.000122513
0.000122674
0.000122835
0.000122996
0.000123157
0.000123319
0.00012348
0.000123642
0.000123804
0.000123965
0.000124127
0.00012429
0.000124452
0.000124614
0.000124776
0.000124939
0.000125101
0.000125264
0.000125427
0.00012559
0.000125753
0.000125916
0.000126079
0.000126242
0.000126406
0.000126569
0.000126733
0.000126897
0.000127061
0.000127225
0.000127389
0.000127553
0.000127717
0.000127881
0.000128046
0.00012821
0.000128375
0.00012854
0.000128705
0.00012887
0.000129035
0.0001292
0.000129366
0.000129531
0.000129696
0.000129862
0.000130028
0.000130194
0.00013036
0.000130526
0.000130692
0.000130858
0.000131025
0.000131191
0.000131357
0.000131524
0.000131691
0.000131858
0.000132025
0.000132192
0.000132359
0.000132526
0.000132694
0.000132862
0.000133029
0.000133197
0.000133365
0.000133533
0.000133701
0.000133869
0.000134037
0.000134206
0.000134375
0.000134543
0.000134712
0.000134881
0.000135049
0.000135219
0.000135388
0.000135557
0.000135726
0.000135896
0.000136065
0.000136235
0.000136405
0.000136575
0.000136745
0.000136915
0.000137085
0.000137255
0.000137426
0.000137596
0.000137767
0.000137937
0.000138108
0.000138279
0.00013845
0.000138621
0.000138793
0.000138964
0.000139135
0.000139307
0.000139479
0.00013965
0.000139822
0.000139994
0.000140166
0.000140338
0.000140511
0.000140683
0.000140856
0.000141028
0.000141201
0.000141374
0.000141547
0.00014172
0.000141893
0.000142066
0.00014224
0.000142413
0.000142587
0.000142761
0.000142934
0.000143108
0.000143283
0.000143456
0.000143631
0.000143805
0.00014398
0.000144154
0.000144329
0.000144503
0.000144678
0.000144853
0.000145028
0.000145203
0.000145379
0.000145554
0.00014573
0.000145905
0.000146081
0.000146257
0.000146433
0.000146609
0.000146785
0.000146961
0.000147137
0.000147314
0.00014749
0.000147667
0.000147843
0.00014802
0.000148197
0.000148374
0.000148552
0.000148729
0.000148906
0.000149084
0.000149261
0.000149439
0.000149617
0.000149795
0.000149973
0.000150151
0.000150329
0.000150508
0.000150686
0.000150865
0.000151043
0.000151222
0.000151401
0.00015158
0.000151759
0.000151938
0.000152118
0.000152297
0.000152476
0.000152656
0.000152836
0.000153016
0.000153196
0.000153376
0.000153556
0.000153736
0.000153916
0.000154097
0.000154277
0.000154458
0.000154639
0.00015482
0.000155001
0.000155182
0.000155363
0.000155544
0.000155726
0.000155907
0.000156089
0.00015627
0.000156452
0.000156634
0.000156816
0.000156998
0.000157181
0.000157363
0.000157545
0.000157728
0.000157911
0.000158094
0.000158277
0.00015846
0.000158643
0.000158826
0.000159009
0.000159193
0.000159376
0.00015956
0.000159744
0.000159927
0.000160111
0.000160296
0.00016048
0.000160664
0.000160848
0.000161033
0.000161217
0.000161402
0.000161587
0.000161772
0.000161957
0.000162142
0.000162327
0.000162513
0.000162698
0.000162884
0.000163069
0.000163255
0.000163441
0.000163627
0.000163813
0.000163999
0.000164185
0.000164372
0.000164558
0.000164745
0.000164931
0.000165118
0.000165305
0.000165492
0.000165679
0.000165866
0.000166054
0.000166241
0.000166429
0.000166616
0.000166804
0.000166992
0.00016718
0.000167368
0.000167556
0.000167745
0.000167933
0.000168122
0.00016831
0.000168499
0.000168688
0.000168877
0.000169066
0.000169255
0.000169444
0.000169633
0.000169823
0.000170013
0.000170202
0.000170392
0.000170582
0.000170772
0.000170962
0.000171152
0.000171342
0.000171533
0.000171723
0.000171914
0.000172105
0.000172296
0.000172486
0.000172678
0.000172869
0.00017306
0.000173251
0.000173443
0.000173634
0.000173826
0.000174018
0.00017421
0.000174402
0.000174594
0.000174786
0.000174978
0.000175171
0.000175363
0.000175556
0.000175748
0.000175941
0.000176134
0.000176327
0.000176521
0.000176714
0.000176907
0.000177101
0.000177294
0.000177488
0.000177682
0.000177876
0.00017807
0.000178264
0.000178458
0.000178653
0.000178847
0.000179042
0.000179236
0.000179431
0.000179626
0.000179821
0.000180016
0.000180211
0.000180406
0.000180602
0.000180797
0.000180993
0.000181188
0.000181384
0.00018158
0.000181776
0.000181972
0.000182169
0.000182365
0.000182561
0.000182758
0.000182955
0.000183151
0.000183348
0.000183545
0.000183742
0.000183939
0.000184137
0.000184334
0.000184531
0.000184729
0.000184927
0.000185124
0.000185322
0.00018552
0.000185719
0.000185917
0.000186115
0.000186314
0.000186512
0.000186711
0.00018691
0.000187109
0.000187308
0.000187507
0.000187706
0.000187905
0.000188105
0.000188304
0.000188504
0.000188704
0.000188904
0.000189104
0.000189303
0.000189504
0.000189704
0.000189904
0.000190105
0.000190305
0.000190506
0.000190707
0.000190908
0.000191109
0.00019131
0.000191511
0.000191712
0.000191914
0.000192115
0.000192317
0.000192518
0.00019272
0.000192922
0.000193124
0.000193326
0.000193529
0.000193731
0.000193934
0.000194136
0.000194339
0.000194541
0.000194744
0.000194947
0.000195151
0.000195354
0.000195557
0.000195761
0.000195964
0.000196168
0.000196372
0.000196575
0.000196779
0.000196983
0.000197188
0.000197392
0.000197596
0.000197801
0.000198005
0.00019821
0.000198415
0.00019862
0.000198825
0.00019903
0.000199235
0.000199441
0.000199646
0.000199852
0.000200057
0.000200263
0.000200469
0.000200675
0.000200881
0.000201087
0.000201294
0.0002015
0.000201706
0.000201913
0.00020212
0.000202327
0.000202533
0.00020274
0.000202947
0.000203155
0.000203362
0.00020357
0.000203777
0.000203985
0.000204192
0.0002044
0.000204608
0.000204816
0.000205024
0.000205233
0.000205441
0.00020565
0.000205858
0.000206067
0.000206276
0.000206485
0.000206694
0.000206903
0.000207112
0.000207322
0.000207531
0.000207741
0.000207951
0.00020816
0.00020837
0.00020858
0.00020879
0.000209001
0.000209211
0.000209421
0.000209632
0.000209843
0.000210053
0.000210264
0.000210475
0.000210686
0.000210897
0.000211108
0.00021132
0.000211531
0.000211743
0.000211955
0.000212166
0.000212378
0.00021259
0.000212802
0.000213015
0.000213227
0.000213439
0.000213652
0.000213864
0.000214077
0.00021429
0.000214503
0.000214716
0.000214929
0.000215142
0.000215356
0.000215569
0.000215783
0.000215997
0.00021621
0.000216424
0.000216638
0.000216852
0.000217067
0.000217281
0.000217496
0.00021771
0.000217925
0.000218139
0.000218354
0.000218569
0.000218785
0.000219
0.000219215
0.00021943
0.000219646
0.000219862
0.000220077
0.000220293
0.000220509
0.000220725
0.000220941
0.000221157
0.000221374
0.00022159
0.000221807
0.000222023
0.00022224
0.000222457
0.000222674
0.000222891
0.000223108
0.000223325
0.000223543
0.00022376
0.000223978
0.000224196
0.000224413
0.000224631
0.000224849
0.000225068
0.000225286
0.000225504
0.000225722
0.000225941
0.00022616
0.000226379
0.000226597
0.000226816
0.000227035
0.000227255
0.000227474
0.000227694
0.000227913
0.000228133
0.000228352
0.000228572
0.000228792
0.000229012
0.000229232
0.000229453
0.000229673
0.000229894
0.000230114
0.000230335
0.000230556
0.000230777
0.000230998
0.000231219
0.00023144
0.000231661
0.000231883
0.000232104
0.000232326
0.000232547
0.000232769
0.000232991
0.000233213
0.000233435
0.000233658
0.00023388
0.000234103
0.000234325
0.000234548
0.000234771
0.000234993
0.000235217
0.00023544
0.000235663
0.000235886
0.000236109
0.000236333
0.000236557
0.000236781
0.000237004
0.000237228
0.000237452
0.000237677
0.000237901
0.000238125
0.00023835
0.000238574
0.000238799
0.000239024
0.000239249
0.000239474
0.000239699
0.000239925
0.00024015
0.000240375
0.000240601
0.000240826
0.000241052
0.000241278
0.000241504
0.00024173
0.000241956
0.000242183
0.000242409
0.000242635
0.000242862
0.000243089
0.000243316
0.000243543
0.00024377
0.000243997
0.000244224
0.000244451
0.000244679
0.000244906
0.000245134
0.000245362
0.00024559
0.000245818
0.000246046
0.000246274
0.000246502
0.000246731
0.000246959
0.000247188
0.000247416
0.000247645
0.000247874
0.000248103
0.000248332
0.000248562
0.000248791
0.00024902
0.00024925
0.00024948
0.00024971
0.000249939
0.000250169
0.0002504
0.00025063
0.00025086
0.000251091
0.000251321
0.000251552
0.000251783
0.000252013
0.000252244
0.000252475
0.000252707
0.000252938
0.000253169
0.000253401
0.000253632
0.000253864
0.000254096
0.000254328
0.00025456
0.000254792
0.000255024
0.000255256
0.000255489
0.000255721
0.000255954
0.000256187
0.000256419
0.000256652
0.000256885
0.000257118
0.000257352
0.000257585
0.000257819
0.000258052
0.000258286
0.00025852
0.000258754
0.000258988
0.000259222
0.000259456
0.00025969
0.000259925
0.00026016
0.000260394
0.000260629
0.000260864
0.000261099
0.000261334
0.000261569
0.000261804
0.00026204
0.000262275
0.000262511
0.000262747
0.000262983
0.000263218
0.000263455
0.000263691
0.000263927
0.000264163
0.0002644
0.000264636
0.000264873
0.00026511
0.000265347
0.000265583
0.000265821
0.000266058
0.000266295
0.000266532
0.00026677
0.000267008
0.000267245
0.000267483
0.000267721
0.000267959
0.000268197
0.000268436
0.000268674
0.000268912
0.000269151
0.00026939
0.000269628
0.000269867
0.000270106
0.000270345
0.000270584
0.000270824
0.000271063
0.000271303
0.000271542
0.000271782
0.000272022
0.000272262
0.000272502
0.000272742
0.000272982
0.000273223
0.000273463
0.000273704
0.000273945
0.000274185
0.000274426
0.000274667
0.000274908
0.00027515
0.000275391
0.000275633
0.000275874
0.000276116
0.000276357
0.000276599
0.000276841
0.000277083
0.000277325
0.000277568
0.00027781
0.000278053
0.000278295
0.000278538
0.000278781
0.000279023
0.000279267
0.00027951
0.000279753
0.000279996
0.000280239
0.000280483
0.000280727
0.00028097
0.000281214
0.000281458
0.000281702
0.000281947
0.000282191
0.000282435
0.00028268
0.000282924
0.000283169
0.000283414
0.000283659
0.000283904
0.000284149
0.000284394
0.00028464
0.000284885
0.000285131
0.000285376
0.000285622
0.000285868
0.000286114
0.00028636
0.000286606
0.000286853
0.000287099
0.000287346
0.000287592
0.000287839
0.000288086
0.000288333
0.00028858
0.000288827
0.000289074
0.000289322
0.000289569
0.000289816
0.000290064
0.000290312
0.00029056
0.000290808
0.000291056
0.000291304
0.000291552
0.000291801
0.000292049
0.000292298
0.000292547
0.000292795
0.000293044
0.000293293
0.000293542
0.000293792
0.000294041
0.000294291
0.00029454
0.00029479
0.00029504
0.00029529
0.00029554
0.00029579
0.00029604
0.00029629
0.000296541
0.000296791
0.000297042
0.000297293
0.000297544
0.000297794
0.000298046
0.000298297
0.000298548
0.000298799
0.000299051
0.000299302
0.000299554
0.000299806
0.000300058
0.00030031
0.000300562
0.000300814
0.000301067
0.000301319
0.000301572
0.000301824
0.000302077
0.00030233
0.000302583
0.000302836
0.000303089
0.000303342
0.000303596
0.000303849
0.000304103
0.000304356
0.00030461
0.000304864
0.000305118
0.000305372
0.000305626
0.000305881
0.000306135
0.00030639
0.000306644
0.000306899
0.000307154
0.000307409
0.000307664
0.000307919
0.000308175
0.00030843
0.000308686
0.000308941
0.000309197
0.000309453
0.000309709
0.000309965
0.000310221
0.000310477
0.000310734
0.00031099
0.000311247
0.000311504
0.00031176
0.000312017
0.000312274
0.000312531
0.000312788
0.000313046
0.000313303
0.000313561
0.000313818
0.000314076
0.000314334
0.000314592
0.00031485
0.000315108
0.000315366
0.000315624
0.000315883
0.000316141
0.0003164
0.000316659
0.000316918