/*--------------------------------*- C++ -*----------------------------------*\
| =========                 |                                                 |
| \\      /  F ield         | OpenFOAM: The Open Source CFD Toolbox           |
|  \\    /   O peration     | Version:  2206                                  |
|   \\  /    A nd           | Website:  www.openfoam.com                      |
|    \\/     M anipulation  |                                                 |
\*---------------------------------------------------------------------------*/
FoamFile
{
    version     2.0;
    format      ascii;
    arch        "LSB;label=32;scalar=64";
    class       volScalarField;
    location    "10";
    object      p;
}
// * * * * * * * * * * * * * * * * * * * * * * * * * * * * * * * * * * * * * //

dimensions      [0 2 -2 0 0 0 0];

internalField   nonuniform List<scalar> 
36000
(
-204.705
-132143
-262127
-257019
-189829
-130853
476015
466579
498671
591924
678916
736350
1.55082e+06
1.53539e+06
1.61266e+06
1.77114e+06
1.93585e+06
2.01415e+06
3.92555e+06
3.90323e+06
3.87787e+06
3.88385e+06
3.95701e+06
4.02011e+06
7.22222e+06
7.2177e+06
7.21613e+06
7.24621e+06
7.30181e+06
7.3734e+06
1.03566e+07
1.03561e+07
1.03399e+07
1.02922e+07
1.02727e+07
1.02963e+07
1.21629e+07
1.21165e+07
1.20666e+07
1.2056e+07
1.20895e+07
1.21027e+07
1.38522e+07
1.38077e+07
1.38221e+07
1.38837e+07
1.38904e+07
1.38716e+07
1.55479e+07
1.55746e+07
1.56786e+07
1.57921e+07
1.58329e+07
1.58489e+07
1.65302e+07
1.64939e+07
1.6545e+07
1.66938e+07
1.67795e+07
1.68321e+07
1.78961e+07
1.78434e+07
1.77704e+07
1.77866e+07
1.78561e+07
1.79525e+07
1.98072e+07
1.97334e+07
1.96158e+07
1.95567e+07
1.95368e+07
1.95674e+07
2.13905e+07
2.1337e+07
2.12634e+07
2.12432e+07
2.12753e+07
2.12776e+07
2.40869e+07
2.41131e+07
2.41802e+07
2.43053e+07
2.43905e+07
2.44235e+07
2.815e+07
2.81872e+07
2.82375e+07
2.82867e+07
2.83219e+07
2.83586e+07
3.22402e+07
3.22497e+07
3.22563e+07
3.22429e+07
3.22051e+07
3.21894e+07
3.65884e+07
3.65942e+07
3.66024e+07
3.65905e+07
3.65463e+07
3.65032e+07
3.97329e+07
3.97445e+07
3.97462e+07
3.97349e+07
3.97139e+07
3.96882e+07
4.15767e+07
4.15868e+07
4.16016e+07
4.16262e+07
4.16431e+07
4.16429e+07
4.29411e+07
4.29526e+07
4.29795e+07
4.3001e+07
4.30149e+07
4.30257e+07
4.31109e+07
4.30728e+07
4.30615e+07
4.3111e+07
4.31867e+07
4.32193e+07
4.37993e+07
4.37262e+07
4.36556e+07
4.36992e+07
4.37596e+07
4.37782e+07
4.49238e+07
4.49925e+07
4.50532e+07
4.50795e+07
4.50981e+07
4.51158e+07
4.69147e+07
4.69355e+07
4.69512e+07
4.6982e+07
4.70364e+07
4.71143e+07
4.94105e+07
4.94177e+07
4.94155e+07
4.94054e+07
4.94077e+07
4.9464e+07
5.16579e+07
5.16534e+07
5.16305e+07
5.16059e+07
5.16262e+07
5.16547e+07
5.38733e+07
5.38347e+07
5.38081e+07
5.38333e+07
5.38917e+07
5.393e+07
5.63356e+07
5.63329e+07
5.63732e+07
5.64677e+07
5.65613e+07
5.66244e+07
5.95666e+07
5.96057e+07
5.96844e+07
5.97849e+07
5.98562e+07
5.9896e+07
6.2606e+07
6.26564e+07
6.27157e+07
6.27318e+07
6.27017e+07
6.2669e+07
6.44075e+07
6.43993e+07
6.4387e+07
6.43596e+07
6.43397e+07
6.43494e+07
6.67437e+07
6.67209e+07
6.66998e+07
6.66968e+07
6.67196e+07
6.67532e+07
7.02732e+07
7.02751e+07
7.02688e+07
7.02546e+07
7.02402e+07
7.02168e+07
7.29289e+07
7.29402e+07
7.29334e+07
7.28703e+07
7.27846e+07
7.27311e+07
7.41115e+07
7.40322e+07
7.39292e+07
7.38677e+07
7.38345e+07
7.38555e+07
7.56785e+07
7.565e+07
7.56319e+07
7.56376e+07
7.56884e+07
7.57501e+07
7.83535e+07
7.833e+07
7.83453e+07
7.83616e+07
7.8391e+07
7.84271e+07
8.06022e+07
8.05542e+07
8.05102e+07
8.05111e+07
8.05007e+07
8.05022e+07
8.28886e+07
8.28478e+07
8.27674e+07
8.27403e+07
8.273e+07
8.27504e+07
8.81422e+07
8.8147e+07
8.81386e+07
8.81184e+07
8.80829e+07
8.80182e+07
9.38185e+07
9.3844e+07
9.39085e+07
9.39623e+07
9.40001e+07
9.3991e+07
9.7576e+07
9.75905e+07
9.76259e+07
9.76703e+07
9.77162e+07
9.77507e+07
1.00789e+08
1.00787e+08
1.00774e+08
1.00767e+08
1.0078e+08
1.00799e+08
1.0402e+08
1.04014e+08
1.04005e+08
1.03983e+08
1.03964e+08
1.03961e+08
1.06032e+08
1.06014e+08
1.06009e+08
1.06027e+08
1.06052e+08
1.0606e+08
1.07336e+08
1.07297e+08
1.07263e+08
1.07238e+08
1.07233e+08
1.07233e+08
1.09033e+08
1.0903e+08
1.0902e+08
1.08996e+08
1.08957e+08
1.08934e+08
1.11137e+08
1.11183e+08
1.11253e+08
1.11306e+08
1.11349e+08
1.11396e+08
1.13039e+08
1.13074e+08
1.13114e+08
1.13153e+08
1.1321e+08
1.13269e+08
1.137e+08
1.13683e+08
1.13673e+08
1.13747e+08
1.13887e+08
1.13982e+08
1.14247e+08
1.14164e+08
1.14087e+08
1.1406e+08
1.14089e+08
1.14103e+08
1.15856e+08
1.15776e+08
1.15699e+08
1.15671e+08
1.15649e+08
1.15618e+08
1.17535e+08
1.17564e+08
1.17625e+08
1.17668e+08
1.17685e+08
1.17696e+08
1.19105e+08
1.19106e+08
1.19093e+08
1.1911e+08
1.19151e+08
1.19183e+08
1.21005e+08
1.20987e+08
1.20871e+08
1.20794e+08
1.20768e+08
1.20789e+08
1.22584e+08
1.22536e+08
1.2251e+08
1.2258e+08
1.22623e+08
1.22643e+08
1.2425e+08
1.24244e+08
1.2429e+08
1.24427e+08
1.24515e+08
1.24543e+08
1.26361e+08
1.26348e+08
1.26362e+08
1.26408e+08
1.26476e+08
1.26508e+08
1.28422e+08
1.28413e+08
1.28433e+08
1.28465e+08
1.28489e+08
1.28502e+08
1.3073e+08
1.30715e+08
1.30726e+08
1.30747e+08
1.30766e+08
1.30781e+08
1.34545e+08
1.34569e+08
1.34579e+08
1.34582e+08
1.34588e+08
1.34615e+08
1.38373e+08
1.38406e+08
1.38435e+08
1.38446e+08
1.38444e+08
1.38442e+08
1.40372e+08
1.4038e+08
1.40441e+08
1.40538e+08
1.40617e+08
1.40658e+08
1.41965e+08
1.4195e+08
1.41949e+08
1.41985e+08
1.42035e+08
1.42081e+08
1.43725e+08
1.43701e+08
1.4368e+08
1.43675e+08
1.43695e+08
1.43728e+08
1.4526e+08
1.45253e+08
1.45242e+08
1.45236e+08
1.45265e+08
1.45281e+08
1.46921e+08
1.46905e+08
1.46872e+08
1.46858e+08
1.46888e+08
1.46906e+08
1.49283e+08
1.49276e+08
1.49271e+08
1.49274e+08
1.49284e+08
1.49309e+08
1.51812e+08
1.51785e+08
1.51734e+08
1.51719e+08
1.51718e+08
1.51771e+08
1.55399e+08
1.55415e+08
1.55429e+08
1.55419e+08
1.55396e+08
1.55374e+08
1.58463e+08
1.58494e+08
1.58553e+08
1.58597e+08
1.58626e+08
1.58632e+08
1.60208e+08
1.60191e+08
1.60196e+08
1.60223e+08
1.60263e+08
1.60301e+08
1.63532e+08
1.63515e+08
1.63531e+08
1.63552e+08
1.63572e+08
1.63593e+08
1.67977e+08
1.67981e+08
1.6798e+08
1.67966e+08
1.67948e+08
1.6794e+08
1.71043e+08
1.71063e+08
1.71091e+08
1.71134e+08
1.71169e+08
1.71196e+08
1.73551e+08
1.73583e+08
1.73643e+08
1.73711e+08
1.7375e+08
1.73787e+08
1.76163e+08
1.76171e+08
1.76185e+08
1.76193e+08
1.7622e+08
1.76251e+08
1.78324e+08
1.78313e+08
1.78325e+08
1.78348e+08
1.78374e+08
1.78382e+08
1.81706e+08
1.81677e+08
1.81657e+08
1.81636e+08
1.81594e+08
1.81563e+08
1.84622e+08
1.84619e+08
1.8459e+08
1.84557e+08
1.84521e+08
1.84497e+08
1.8586e+08
1.85845e+08
1.85836e+08
1.85842e+08
1.8586e+08
1.85871e+08
1.87321e+08
1.87278e+08
1.87249e+08
1.87248e+08
1.87257e+08
1.87264e+08
1.89417e+08
1.89402e+08
1.89369e+08
1.89339e+08
1.89316e+08
1.89307e+08
1.91517e+08
1.91519e+08
1.91513e+08
1.91491e+08
1.91474e+08
1.91462e+08
1.93475e+08
1.93471e+08
1.93456e+08
1.93435e+08
1.9344e+08
1.93442e+08
1.95219e+08
1.95196e+08
1.95173e+08
1.95181e+08
1.95247e+08
1.95309e+08
1.97406e+08
1.97463e+08
1.97494e+08
1.97529e+08
1.97603e+08
1.97666e+08
2.00247e+08
2.0026e+08
2.00256e+08
2.0024e+08
2.00214e+08
2.00209e+08
2.02639e+08
2.02632e+08
2.02586e+08
2.02541e+08
2.02549e+08
2.02569e+08
2.05409e+08
2.05423e+08
2.05448e+08
2.05511e+08
2.05579e+08
2.05617e+08
2.08792e+08
2.08797e+08
2.08807e+08
2.08809e+08
2.08815e+08
2.08842e+08
2.11506e+08
2.11489e+08
2.11467e+08
2.11446e+08
2.11434e+08
2.11432e+08
2.14027e+08
2.14024e+08
2.14025e+08
2.14023e+08
2.14012e+08
2.14003e+08
2.17442e+08
2.17446e+08
2.17454e+08
2.17483e+08
2.17523e+08
2.17559e+08
2.21049e+08
2.2106e+08
2.21096e+08
2.2114e+08
2.21187e+08
2.21224e+08
2.24195e+08
2.24208e+08
2.24228e+08
2.2423e+08
2.24222e+08
2.24223e+08
2.26767e+08
2.26791e+08
2.2683e+08
2.26872e+08
2.26904e+08
2.26918e+08
2.29316e+08
2.29364e+08
2.29409e+08
2.29425e+08
2.2943e+08
2.29435e+08
2.30999e+08
2.31016e+08
2.31041e+08
2.31068e+08
2.31078e+08
2.31077e+08
2.31467e+08
2.31451e+08
2.31428e+08
2.3147e+08
2.31567e+08
2.31641e+08
2.31884e+08
2.31834e+08
2.31738e+08
2.31677e+08
2.31705e+08
2.31738e+08
2.32826e+08
2.32845e+08
2.32855e+08
2.32836e+08
2.32807e+08
2.32791e+08
2.34054e+08
2.34042e+08
2.34035e+08
2.34052e+08
2.34066e+08
2.3407e+08
2.36073e+08
2.36081e+08
2.36109e+08
2.3614e+08
2.36186e+08
2.3623e+08
2.3944e+08
2.39426e+08
2.39442e+08
2.39469e+08
2.39537e+08
2.39618e+08
2.43637e+08
2.43553e+08
2.43413e+08
2.4331e+08
2.43241e+08
2.4322e+08
2.46371e+08
2.46414e+08
2.46462e+08
2.46389e+08
2.46325e+08
2.46313e+08
2.48095e+08
2.48123e+08
2.48143e+08
2.48159e+08
2.48224e+08
2.48299e+08
2.51287e+08
2.51274e+08
2.51241e+08
2.51249e+08
2.51316e+08
2.51379e+08
2.56443e+08
2.56389e+08
2.56367e+08
2.56381e+08
2.5642e+08
2.56482e+08
2.6136e+08
2.61375e+08
2.61404e+08
2.61379e+08
2.61354e+08
2.61372e+08
2.6433e+08
2.64356e+08
2.64388e+08
2.64404e+08
2.64426e+08
2.64451e+08
2.66093e+08
2.66091e+08
2.66054e+08
2.66057e+08
2.66079e+08
2.66076e+08
2.67184e+08
2.67207e+08
2.67213e+08
2.67237e+08
2.67311e+08
2.67346e+08
2.68884e+08
2.68881e+08
2.68874e+08
2.68853e+08
2.68835e+08
2.68823e+08
2.70715e+08
2.70686e+08
2.70651e+08
2.70619e+08
2.70592e+08
2.70571e+08
2.72212e+08
2.72152e+08
2.72077e+08
2.72022e+08
2.7201e+08
2.72027e+08
2.7418e+08
2.74116e+08
2.74013e+08
2.73944e+08
2.73899e+08
2.73869e+08
2.76457e+08
2.76437e+08
2.76397e+08
2.76339e+08
2.76297e+08
2.76264e+08
2.78365e+08
2.7836e+08
2.78354e+08
2.78354e+08
2.78355e+08
2.78344e+08
2.80295e+08
2.80304e+08
2.80316e+08
2.80325e+08
2.80332e+08
2.80333e+08
2.82051e+08
2.82071e+08
2.82078e+08
2.82087e+08
2.82093e+08
2.821e+08
2.83325e+08
2.8335e+08
2.8339e+08
2.83434e+08
2.8347e+08
2.83511e+08
2.85464e+08
2.85468e+08
2.85475e+08
2.85472e+08
2.85509e+08
2.8558e+08
2.90401e+08
2.90414e+08
2.90441e+08
2.90458e+08
2.90504e+08
2.90573e+08
2.96582e+08
2.96561e+08
2.96526e+08
2.96499e+08
2.96474e+08
2.96453e+08
3.00275e+08
3.00283e+08
3.00297e+08
3.00301e+08
3.00276e+08
3.00243e+08
3.01856e+08
3.01855e+08
3.01863e+08
3.01884e+08
3.01904e+08
3.01907e+08
3.03145e+08
3.0315e+08
3.03169e+08
3.03196e+08
3.03223e+08
3.03232e+08
3.04539e+08
3.04545e+08
3.04542e+08
3.0454e+08
3.04543e+08
3.04542e+08
3.06115e+08
3.06123e+08
3.06151e+08
3.06216e+08
3.06292e+08
3.06349e+08
3.08137e+08
3.08157e+08
3.08193e+08
3.08258e+08
3.08363e+08
3.08466e+08
3.10342e+08
3.10337e+08
3.10342e+08
3.10392e+08
3.10457e+08
3.10516e+08
3.12455e+08
3.12415e+08
3.12337e+08
3.12258e+08
3.1219e+08
3.12166e+08
3.15958e+08
3.15933e+08
3.15882e+08
3.15813e+08
3.15732e+08
3.1565e+08
3.18713e+08
3.18721e+08
3.18736e+08
3.18733e+08
3.18741e+08
3.18751e+08
3.20176e+08
3.20168e+08
3.20168e+08
3.20197e+08
3.20265e+08
3.20325e+08
3.23038e+08
3.23047e+08
3.23062e+08
3.23065e+08
3.2306e+08
3.23058e+08
3.25133e+08
3.2511e+08
3.25068e+08
3.25036e+08
3.2504e+08
3.2506e+08
3.26342e+08
3.26309e+08
3.26231e+08
3.26203e+08
3.26256e+08
3.2632e+08
3.27356e+08
3.27339e+08
3.27316e+08
3.27334e+08
3.27405e+08
3.27511e+08
3.28473e+08
3.28466e+08
3.28497e+08
3.28554e+08
3.28653e+08
3.28736e+08
3.29585e+08
3.29573e+08
3.29539e+08
3.29489e+08
3.29483e+08
3.29505e+08
3.31399e+08
3.31399e+08
3.31345e+08
3.3127e+08
3.3125e+08
3.3129e+08
3.33075e+08
3.3305e+08
3.32994e+08
3.3291e+08
3.32836e+08
3.32815e+08
3.3477e+08
3.34734e+08
3.34686e+08
3.34643e+08
3.34594e+08
3.34538e+08
3.36657e+08
3.36597e+08
3.36542e+08
3.36518e+08
3.36551e+08
3.36621e+08
3.37209e+08
3.37148e+08
3.37103e+08
3.37087e+08
3.37119e+08
3.37163e+08
3.37647e+08
3.37621e+08
3.37578e+08
3.37606e+08
3.37744e+08
3.37794e+08
3.39163e+08
3.39155e+08
3.39142e+08
3.39203e+08
3.3936e+08
3.3943e+08
3.41218e+08
3.41232e+08
3.41228e+08
3.41246e+08
3.41289e+08
3.41352e+08
3.43923e+08
3.43902e+08
3.43863e+08
3.43804e+08
3.43747e+08
3.43726e+08
3.46508e+08
3.46487e+08
3.46455e+08
3.46411e+08
3.46383e+08
3.4637e+08
3.49501e+08
3.49487e+08
3.49458e+08
3.49488e+08
3.49532e+08
3.49552e+08
3.52822e+08
3.52805e+08
3.52787e+08
3.52773e+08
3.52771e+08
3.52802e+08
3.55299e+08
3.55224e+08
3.55175e+08
3.55076e+08
3.55028e+08
3.55065e+08
3.59062e+08
3.59026e+08
3.58974e+08
3.58902e+08
3.58839e+08
3.58799e+08
3.63542e+08
3.63561e+08
3.63557e+08
3.63563e+08
3.63548e+08
3.63526e+08
3.6672e+08
3.66717e+08
3.66747e+08
3.66825e+08
3.66879e+08
3.66903e+08
3.69662e+08
3.69658e+08
3.69664e+08
3.69692e+08
3.69741e+08
3.69781e+08
3.72221e+08
3.72225e+08
3.72221e+08
3.72227e+08
3.72274e+08
3.72323e+08
3.73169e+08
3.73144e+08
3.73136e+08
3.73181e+08
3.7321e+08
3.73201e+08
3.73702e+08
3.7363e+08
3.73594e+08
3.73628e+08
3.73658e+08
3.73672e+08
3.75025e+08
3.74979e+08
3.74927e+08
3.74897e+08
3.74882e+08
3.74869e+08
3.7655e+08
3.76582e+08
3.76592e+08
3.76566e+08
3.76539e+08
3.76525e+08
3.77604e+08
3.77604e+08
3.77594e+08
3.7757e+08
3.77545e+08
3.77531e+08
3.77871e+08
3.77884e+08
3.77897e+08
3.77893e+08
3.77872e+08
3.77855e+08
3.78297e+08
3.78311e+08
3.78343e+08
3.78391e+08
3.78424e+08
3.78445e+08
3.79215e+08
3.79315e+08
3.7943e+08
3.79513e+08
3.79558e+08
3.79588e+08
3.80708e+08
3.80782e+08
3.80862e+08
3.80896e+08
3.80896e+08
3.80894e+08
3.82143e+08
3.82173e+08
3.82196e+08
3.82224e+08
3.82271e+08
3.82318e+08
3.83848e+08
3.83875e+08
3.83912e+08
3.83976e+08
3.84083e+08
3.84167e+08
3.85272e+08
3.85294e+08
3.85323e+08
3.853e+08
3.85335e+08
3.85427e+08
3.85305e+08
3.85256e+08
3.85104e+08
3.85014e+08
3.85062e+08
3.85154e+08
3.85584e+08
3.85522e+08
3.85399e+08
3.85404e+08
3.85528e+08
3.85598e+08
3.86722e+08
3.86697e+08
3.86657e+08
3.86648e+08
3.86664e+08
3.86675e+08
3.88608e+08
3.8859e+08
3.88548e+08
3.88502e+08
3.88474e+08
3.88452e+08
3.90547e+08
3.90542e+08
3.90542e+08
3.90529e+08
3.90513e+08
3.90501e+08
3.93428e+08
3.93431e+08
3.9343e+08
3.93426e+08
3.93412e+08
3.93391e+08
3.96297e+08
3.96339e+08
3.96379e+08
3.96401e+08
3.96405e+08
3.96407e+08
3.98343e+08
3.98351e+08
3.98354e+08
3.98358e+08
3.98372e+08
3.98391e+08
4.01091e+08
4.01099e+08
4.01086e+08
4.01069e+08
4.01057e+08
4.0107e+08
4.05521e+08
4.05499e+08
4.05448e+08
4.05384e+08
4.05315e+08
4.05261e+08
4.10858e+08
4.10804e+08
4.10715e+08
4.10576e+08
4.10448e+08
4.10361e+08
4.17279e+08
4.17267e+08
4.17232e+08
4.1714e+08
4.16996e+08
4.16786e+08
4.22041e+08
4.22096e+08
4.22176e+08
4.22288e+08
4.22423e+08
4.22474e+08
4.24012e+08
4.23936e+08
4.23821e+08
4.23769e+08
4.23809e+08
4.23897e+08
4.26292e+08
4.26257e+08
4.26213e+08
4.26238e+08
4.26286e+08
4.26343e+08
4.29272e+08
4.29277e+08
4.29306e+08
4.29356e+08
4.29374e+08
4.29395e+08
4.32397e+08
4.32405e+08
4.32419e+08
4.32406e+08
4.32394e+08
4.32407e+08
4.36075e+08
4.36033e+08
4.35982e+08
4.35912e+08
4.35845e+08
4.35837e+08
4.40967e+08
4.40918e+08
4.40866e+08
4.4082e+08
4.40781e+08
4.40746e+08
4.4507e+08
4.45112e+08
4.4522e+08
4.45344e+08
4.45406e+08
4.45421e+08
4.49513e+08
4.49486e+08
4.49471e+08
4.49496e+08
4.49537e+08
4.49573e+08
4.53837e+08
4.53768e+08
4.5369e+08
4.53646e+08
4.53637e+08
4.53631e+08
4.56066e+08
4.56033e+08
4.56003e+08
4.55969e+08
4.55959e+08
4.55975e+08
4.58022e+08
4.57971e+08
4.57849e+08
4.57812e+08
4.57823e+08
4.57853e+08
4.60616e+08
4.60556e+08
4.60455e+08
4.60412e+08
4.60429e+08
4.60447e+08
4.62946e+08
4.62923e+08
4.62921e+08
4.62934e+08
4.62949e+08
4.62955e+08
4.65261e+08
4.65246e+08
4.65256e+08
4.65282e+08
4.653e+08
4.65309e+08
4.67628e+08
4.67609e+08
4.67598e+08
4.67606e+08
4.67604e+08
4.67603e+08
4.69929e+08
4.69933e+08
4.69934e+08
4.69944e+08
4.69938e+08
4.69923e+08
4.72453e+08
4.72451e+08
4.72416e+08
4.72354e+08
4.72305e+08
4.72278e+08
4.75642e+08
4.75606e+08
4.75545e+08
4.75467e+08
4.75401e+08
4.75345e+08
4.78521e+08
4.78504e+08
4.78488e+08
4.78442e+08
4.78381e+08
4.78314e+08
4.80861e+08
4.80851e+08
4.80864e+08
4.80874e+08
4.80862e+08
4.80837e+08
4.83333e+08
4.83318e+08
4.83304e+08
4.83297e+08
4.83283e+08
4.83269e+08
4.85361e+08
4.85338e+08
4.85311e+08
4.85285e+08
4.85264e+08
4.85254e+08
4.87005e+08
4.86997e+08
4.8698e+08
4.86954e+08
4.86937e+08
4.86935e+08
4.8812e+08
4.88119e+08
4.88114e+08
4.88126e+08
4.88154e+08
4.88174e+08
4.89669e+08
4.897e+08
4.89712e+08
4.89718e+08
4.8975e+08
4.89768e+08
4.91627e+08
4.91639e+08
4.9165e+08
4.91669e+08
4.91667e+08
4.91638e+08
4.94089e+08
4.94095e+08
4.94113e+08
4.94161e+08
4.94188e+08
4.94177e+08
4.97465e+08
4.97473e+08
4.97485e+08
4.97464e+08
4.97446e+08
4.97432e+08
5.00517e+08
5.00525e+08
5.0054e+08
5.00543e+08
5.00535e+08
5.00538e+08
5.02907e+08
5.02933e+08
5.0297e+08
5.02991e+08
5.02998e+08
5.03005e+08
5.05163e+08
5.05193e+08
5.05229e+08
5.05251e+08
5.05249e+08
5.05249e+08
5.06991e+08
5.0699e+08
5.07007e+08
5.07032e+08
5.07024e+08
5.07009e+08
5.08011e+08
5.08019e+08
5.08058e+08
5.08139e+08
5.08193e+08
5.08187e+08
5.08991e+08
5.09029e+08
5.0906e+08
5.09095e+08
5.09145e+08
5.09155e+08
5.10181e+08
5.1019e+08
5.10143e+08
5.10096e+08
5.10083e+08
5.10064e+08
5.12036e+08
5.12044e+08
5.12067e+08
5.12109e+08
5.12142e+08
5.12156e+08
5.15616e+08
5.15633e+08
5.15673e+08
5.15739e+08
5.15798e+08
5.15845e+08
5.20065e+08
5.20071e+08
5.20081e+08
5.20087e+08
5.20069e+08
5.20052e+08
5.23326e+08
5.23322e+08
5.2331e+08
5.23287e+08
5.23266e+08
5.23245e+08
5.25833e+08
5.25808e+08
5.25783e+08
5.25781e+08
5.25796e+08
5.25804e+08
5.29162e+08
5.29131e+08
5.29096e+08
5.2906e+08
5.29042e+08
5.29031e+08
5.33017e+08
5.32981e+08
5.32927e+08
5.32865e+08
5.32823e+08
5.3281e+08
5.35824e+08
5.35808e+08
5.35761e+08
5.3573e+08
5.35697e+08
5.35702e+08
5.37158e+08
5.37137e+08
5.37094e+08
5.37101e+08
5.37131e+08
5.37173e+08
5.39189e+08
5.3917e+08
5.39134e+08
5.39086e+08
5.391e+08
5.39153e+08
5.41085e+08
5.41068e+08
5.41028e+08
5.41042e+08
5.41088e+08
5.41104e+08
5.42635e+08
5.42591e+08
5.42537e+08
5.42598e+08
5.42698e+08
5.42746e+08
5.44177e+08
5.44137e+08
5.44164e+08
5.44257e+08
5.44323e+08
5.44343e+08
5.46272e+08
5.46283e+08
5.46298e+08
5.46333e+08
5.46371e+08
5.46392e+08
5.48807e+08
5.48804e+08
5.48804e+08
5.4879e+08
5.48795e+08
5.48819e+08
5.5039e+08
5.50357e+08
5.50269e+08
5.50224e+08
5.50247e+08
5.50287e+08
5.51789e+08
5.51761e+08
5.51696e+08
5.51706e+08
5.51779e+08
5.5184e+08
5.54113e+08
5.54099e+08
5.54079e+08
5.54066e+08
5.54074e+08
5.54102e+08
5.57985e+08
5.57948e+08
5.57867e+08
5.57775e+08
5.57707e+08
5.57681e+08
5.63119e+08
5.63077e+08
5.63021e+08
5.62905e+08
5.62801e+08
5.6271e+08
5.67162e+08
5.67169e+08
5.67156e+08
5.67119e+08
5.67082e+08
5.67048e+08
5.69367e+08
5.69351e+08
5.69349e+08
5.69331e+08
5.69308e+08
5.69299e+08
5.70618e+08
5.70614e+08
5.70614e+08
5.70611e+08
5.70604e+08
5.70606e+08
5.71978e+08
5.71988e+08
5.72017e+08
5.72062e+08
5.72082e+08
5.72079e+08
5.73808e+08
5.73849e+08
5.73919e+08
5.73979e+08
5.73988e+08
5.73983e+08
5.76344e+08
5.76371e+08
5.76446e+08
5.76529e+08
5.76585e+08
5.76615e+08
5.80976e+08
5.80911e+08
5.8086e+08
5.80819e+08
5.80817e+08
5.80843e+08
5.86421e+08
5.86327e+08
5.8613e+08
5.85973e+08
5.85898e+08
5.8583e+08
5.92739e+08
5.92673e+08
5.92573e+08
5.92437e+08
5.92325e+08
5.92237e+08
5.97597e+08
5.97555e+08
5.97636e+08
5.97713e+08
5.97727e+08
5.97757e+08
5.98024e+08
5.97992e+08
5.9799e+08
5.97994e+08
5.98022e+08
5.98053e+08
6.00841e+08
6.00829e+08
6.0082e+08
6.00758e+08
6.00737e+08
6.00735e+08
6.04231e+08
6.04247e+08
6.04243e+08
6.04208e+08
6.04183e+08
6.04171e+08
6.07039e+08
6.07008e+08
6.06944e+08
6.0687e+08
6.06859e+08
6.06872e+08
6.1001e+08
6.09998e+08
6.09985e+08
6.09974e+08
6.09968e+08
6.09978e+08
6.12964e+08
6.1297e+08
6.12977e+08
6.12984e+08
6.12979e+08
6.12977e+08
6.15419e+08
6.15414e+08
6.15408e+08
6.15403e+08
6.154e+08
6.15397e+08
6.17453e+08
6.17431e+08
6.17411e+08
6.17404e+08
6.17425e+08
6.17442e+08
6.19647e+08
6.19615e+08
6.19589e+08
6.19596e+08
6.19648e+08
6.19688e+08
6.22835e+08
6.22824e+08
6.22818e+08
6.22833e+08
6.22864e+08
6.22881e+08
6.26411e+08
6.26404e+08
6.26409e+08
6.264e+08
6.26365e+08
6.26343e+08
6.29379e+08
6.29365e+08
6.29342e+08
6.29297e+08
6.29271e+08
6.29261e+08
6.32179e+08
6.32173e+08
6.32163e+08
6.32175e+08
6.32209e+08
6.3223e+08
6.35945e+08
6.35953e+08
6.35977e+08
6.36021e+08
6.36069e+08
6.36111e+08
6.40947e+08
6.40912e+08
6.40876e+08
6.4083e+08
6.40804e+08
6.4081e+08
6.44996e+08
6.44911e+08
6.44799e+08
6.44699e+08
6.44631e+08
6.44591e+08
6.4784e+08
6.47812e+08
6.47814e+08
6.47834e+08
6.47805e+08
6.47744e+08
6.50543e+08
6.50574e+08
6.50607e+08
6.50615e+08
6.5061e+08
6.50599e+08
6.52492e+08
6.52487e+08
6.52457e+08
6.52407e+08
6.52377e+08
6.52388e+08
6.54819e+08
6.54825e+08
6.5483e+08
6.54828e+08
6.54821e+08
6.54838e+08
6.5843e+08
6.58441e+08
6.58461e+08
6.58466e+08
6.58461e+08
6.5845e+08
6.61559e+08
6.61522e+08
6.61467e+08
6.61411e+08
6.6137e+08
6.61337e+08
6.6314e+08
6.63102e+08
6.63064e+08
6.63056e+08
6.6306e+08
6.63066e+08
6.65278e+08
6.65283e+08
6.65298e+08
6.65311e+08
6.6532e+08
6.65334e+08
6.68079e+08
6.68114e+08
6.68146e+08
6.68152e+08
6.68136e+08
6.68116e+08
6.70349e+08
6.70314e+08
6.70267e+08
6.70206e+08
6.70121e+08
6.70043e+08
6.7096e+08
6.70897e+08
6.70839e+08
6.7087e+08
6.70953e+08
6.70989e+08
6.72155e+08
6.72127e+08
6.72155e+08
6.72231e+08
6.72323e+08
6.72369e+08
6.73562e+08
6.7356e+08
6.73551e+08
6.73534e+08
6.73561e+08
6.73591e+08
6.74847e+08
6.74871e+08
6.74883e+08
6.74825e+08
6.74796e+08
6.74781e+08
6.76081e+08
6.76094e+08
6.761e+08
6.76101e+08
6.76113e+08
6.76127e+08
6.77284e+08
6.77284e+08
6.77273e+08
6.77269e+08
6.77275e+08
6.77289e+08
6.78886e+08
6.78905e+08
6.78942e+08
6.78987e+08
6.79023e+08
6.79039e+08
6.80946e+08
6.80939e+08
6.80933e+08
6.80962e+08
6.81003e+08
6.81029e+08
6.85292e+08
6.85273e+08
6.85229e+08
6.85191e+08
6.85178e+08
6.85176e+08
6.90405e+08
6.904e+08
6.9038e+08
6.90361e+08
6.90363e+08
6.90366e+08
6.9406e+08
6.94086e+08
6.94143e+08
6.94214e+08
6.94288e+08
6.94318e+08
6.9614e+08
6.96142e+08
6.96163e+08
6.96181e+08
6.96157e+08
6.96152e+08
6.96726e+08
6.96693e+08
6.96621e+08
6.96561e+08
6.96558e+08
6.96591e+08
6.97092e+08
6.97073e+08
6.97031e+08
6.97011e+08
6.97034e+08
6.97069e+08
6.97789e+08
6.97791e+08
6.97799e+08
6.97815e+08
6.97835e+08
6.97864e+08
6.98961e+08
6.98941e+08
6.989e+08
6.98795e+08
6.98736e+08
6.98759e+08
7.00527e+08
7.00479e+08
7.00408e+08
7.00336e+08
7.00287e+08
7.00253e+08
7.01659e+08
7.01644e+08
7.0165e+08
7.01717e+08
7.01777e+08
7.01818e+08
7.03008e+08
7.02961e+08
7.02953e+08
7.03024e+08
7.03085e+08
7.03116e+08
7.04002e+08
7.03947e+08
7.03924e+08
7.03962e+08
7.04023e+08
7.04051e+08
7.05614e+08
7.05606e+08
7.05591e+08
7.05606e+08
7.05617e+08
7.05619e+08
7.07769e+08
7.07754e+08
7.07749e+08
7.07771e+08
7.07796e+08
7.07821e+08
7.09309e+08
7.09298e+08
7.09292e+08
7.09296e+08
7.09304e+08
7.09321e+08
7.12081e+08
7.121e+08
7.12112e+08
7.12053e+08
7.11992e+08
7.1196e+08
7.14783e+08
7.14782e+08
7.14806e+08
7.1478e+08
7.14736e+08
7.14716e+08
7.16391e+08
7.16347e+08
7.1633e+08
7.16365e+08
7.16406e+08
7.16413e+08
7.18339e+08
7.18278e+08
7.18246e+08
7.18234e+08
7.18238e+08
7.18279e+08
7.21105e+08
7.21117e+08
7.21137e+08
7.21145e+08
7.21149e+08
7.21163e+08
7.24134e+08
7.24167e+08
7.24227e+08
7.24271e+08
7.24292e+08
7.2431e+08
7.2677e+08
7.26768e+08
7.26749e+08
7.2673e+08
7.26716e+08
7.26721e+08
7.29082e+08
7.29037e+08
7.28973e+08
7.28932e+08
7.28913e+08
7.28923e+08
7.3163e+08
7.3158e+08
7.31527e+08
7.315e+08
7.3149e+08
7.315e+08
7.34708e+08
7.34687e+08
7.34651e+08
7.34618e+08
7.34602e+08
7.34605e+08
7.38435e+08
7.38468e+08
7.3852e+08
7.38559e+08
7.38564e+08
7.38559e+08
7.42935e+08
7.42949e+08
7.43012e+08
7.43075e+08
7.43125e+08
7.43145e+08
7.47354e+08
7.47315e+08
7.47292e+08
7.47272e+08
7.47291e+08
7.47301e+08
7.51523e+08
7.5147e+08
7.51391e+08
7.51325e+08
7.51311e+08
7.51313e+08
7.55654e+08
7.55665e+08
7.55696e+08
7.55763e+08
7.55834e+08
7.55864e+08
7.61879e+08
7.61927e+08
7.61975e+08
7.62015e+08
7.62021e+08
7.62016e+08
7.68261e+08
7.68274e+08
7.68267e+08
7.68214e+08
7.68152e+08
7.68114e+08
7.71651e+08
7.71595e+08
7.71572e+08
7.71592e+08
7.71595e+08
7.71584e+08
7.73426e+08
7.73363e+08
7.7335e+08
7.73384e+08
7.7341e+08
7.73427e+08
7.75363e+08
7.75322e+08
7.75275e+08
7.75285e+08
7.75316e+08
7.75339e+08
7.78065e+08
7.78067e+08
7.78045e+08
7.78029e+08
7.78043e+08
7.78065e+08
7.81665e+08
7.81634e+08
7.8159e+08
7.81536e+08
7.81487e+08
7.81445e+08
7.8493e+08
7.84894e+08
7.84858e+08
7.84818e+08
7.8477e+08
7.84732e+08
7.86338e+08
7.86218e+08
7.86134e+08
7.86183e+08
7.86249e+08
7.86249e+08
7.86616e+08
7.86539e+08
7.86504e+08
7.86524e+08
7.86643e+08
7.86703e+08
7.87835e+08
7.87825e+08
7.87791e+08
7.87805e+08
7.87864e+08
7.87932e+08
7.89515e+08
7.89508e+08
7.89498e+08
7.89497e+08
7.89503e+08
7.89519e+08
7.9134e+08
7.91308e+08
7.91278e+08
7.91258e+08
7.91261e+08
7.91275e+08
7.93878e+08
7.93871e+08
7.9385e+08
7.93821e+08
7.93805e+08
7.93805e+08
7.97541e+08
7.97538e+08
7.97533e+08
7.97504e+08
7.97443e+08
7.974e+08
8.01003e+08
8.00968e+08
8.00965e+08
8.00931e+08
8.00873e+08
8.00829e+08
8.02369e+08
8.02303e+08
8.02301e+08
8.02359e+08
8.02385e+08
8.0238e+08
8.03327e+08
8.03247e+08
8.03211e+08
8.03251e+08
8.03305e+08
8.03322e+08
8.04782e+08
8.04761e+08
8.04743e+08
8.04725e+08
8.04679e+08
8.0466e+08
8.06534e+08
8.06548e+08
8.06585e+08
8.06644e+08
8.06675e+08
8.06695e+08
8.10558e+08
8.10541e+08
8.10557e+08
8.10594e+08
8.10628e+08
8.10639e+08
8.15224e+08
8.15192e+08
8.15165e+08
8.15138e+08
8.15132e+08
8.15116e+08
8.18215e+08
8.18154e+08
8.18111e+08
8.18078e+08
8.1806e+08
8.1805e+08
8.21067e+08
8.21036e+08
8.20992e+08
8.20945e+08
8.20906e+08
8.20897e+08
8.24452e+08
8.24447e+08
8.24427e+08
8.2441e+08
8.24393e+08
8.24397e+08
8.28936e+08
8.2893e+08
8.28928e+08
8.28933e+08
8.28937e+08
8.2894e+08
8.33996e+08
8.33994e+08
8.33991e+08
8.3399e+08
8.33996e+08
8.33991e+08
8.38897e+08
8.38892e+08
8.38883e+08
8.38875e+08
8.3888e+08
8.38881e+08
8.44114e+08
8.44173e+08
8.4427e+08
8.44366e+08
8.44408e+08
8.44423e+08
8.50324e+08
8.50355e+08
8.50384e+08
8.50403e+08
8.50396e+08
8.50387e+08
8.55244e+08
8.552e+08
8.55118e+08
8.54988e+08
8.54905e+08
8.54874e+08
8.58011e+08
8.5794e+08
8.57912e+08
8.57943e+08
8.57964e+08
8.57962e+08
8.6031e+08
8.60242e+08
8.6024e+08
8.603e+08
8.60359e+08
8.60373e+08
8.62436e+08
8.62391e+08
8.62351e+08
8.62346e+08
8.62351e+08
8.62367e+08
8.64959e+08
8.64981e+08
8.65017e+08
8.6507e+08
8.65119e+08
8.65147e+08
8.67654e+08
8.67635e+08
8.676e+08
8.67537e+08
8.67544e+08
8.67575e+08
8.70414e+08
8.70371e+08
8.70278e+08
8.70198e+08
8.70159e+08
8.70146e+08
8.72899e+08
8.72846e+08
8.72805e+08
8.72787e+08
8.72744e+08
8.72718e+08
8.73837e+08
8.73765e+08
8.73732e+08
8.73789e+08
8.73848e+08
8.73856e+08
8.74307e+08
8.74241e+08
8.74194e+08
8.74254e+08
8.74378e+08
8.74429e+08
8.75711e+08
8.75735e+08
8.75775e+08
8.75815e+08
8.7583e+08
8.75832e+08
8.77312e+08
8.77316e+08
8.77313e+08
8.77291e+08
8.77234e+08
8.77209e+08
8.78584e+08
8.78577e+08
8.78543e+08
8.78496e+08
8.78464e+08
8.78463e+08
8.79878e+08
8.79886e+08
8.79895e+08
8.79898e+08
8.79917e+08
8.79943e+08
8.82318e+08
8.82313e+08
8.82304e+08
8.8228e+08
8.82263e+08
8.82261e+08
8.85096e+08
8.85072e+08
8.85045e+08
8.85013e+08
8.84978e+08
8.84942e+08
8.87279e+08
8.87266e+08
8.87251e+08
8.8722e+08
8.87196e+08
8.8718e+08
8.89312e+08
8.89306e+08
8.89308e+08
8.89312e+08
8.89307e+08
8.89296e+08
8.90866e+08
8.90847e+08
8.90827e+08
8.90819e+08
8.90827e+08
8.90831e+08
8.91991e+08
8.91969e+08
8.91937e+08
8.91921e+08
8.91933e+08
8.91951e+08
8.93236e+08
8.93226e+08
8.93207e+08
8.93194e+08
8.93202e+08
8.93219e+08
8.94224e+08
8.94231e+08
8.94236e+08
8.9424e+08
8.94256e+08
8.94283e+08
8.94913e+08
8.94897e+08
8.94872e+08
8.94844e+08
8.94807e+08
8.94768e+08
8.95632e+08
8.95568e+08
8.95454e+08
8.95356e+08
8.95288e+08
8.95236e+08
8.95445e+08
8.9535e+08
8.95184e+08
8.95078e+08
8.95089e+08
8.95109e+08
8.95325e+08
8.95287e+08
8.9529e+08
8.95381e+08
8.95485e+08
8.95534e+08
8.96216e+08
8.96244e+08
8.96289e+08
8.96321e+08
8.96347e+08
8.96387e+08
8.97425e+08
8.97416e+08
8.97393e+08
8.97354e+08
8.97365e+08
8.97394e+08
8.98897e+08
8.98875e+08
8.9886e+08
8.9885e+08
8.98846e+08
8.98844e+08
9.00523e+08
9.00486e+08
9.00489e+08
9.00527e+08
9.00525e+08
9.00519e+08
9.0183e+08
9.01769e+08
9.01748e+08
9.0178e+08
9.01808e+08
9.01815e+08
9.03454e+08
9.03435e+08
9.03422e+08
9.03376e+08
9.0332e+08
9.03298e+08
9.05458e+08
9.05457e+08
9.05434e+08
9.0539e+08
9.05348e+08
9.0533e+08
9.08183e+08
9.08141e+08
9.08085e+08
9.08041e+08
9.08064e+08
9.08132e+08
9.15954e+08
9.15954e+08
9.15969e+08
9.1601e+08
9.1606e+08
9.16095e+08
9.2613e+08
9.2615e+08
9.26198e+08
9.26227e+08
9.26214e+08
9.26181e+08
9.33041e+08
9.33022e+08
9.33017e+08
9.33017e+08
9.33006e+08
9.32994e+08
9.3774e+08
9.3772e+08
9.37723e+08
9.37743e+08
9.37786e+08
9.37805e+08
9.42595e+08
9.42606e+08
9.42615e+08
9.42612e+08
9.42597e+08
9.42589e+08
9.46873e+08
9.46871e+08
9.4686e+08
9.46839e+08
9.46811e+08
9.46796e+08
9.49906e+08
9.49878e+08
9.49846e+08
9.49826e+08
9.4981e+08
9.49807e+08
9.52671e+08
9.5265e+08
9.52622e+08
9.52596e+08
9.52569e+08
9.52567e+08
9.55601e+08
9.55596e+08
9.55585e+08
9.55569e+08
9.55552e+08
9.55552e+08
9.58886e+08
9.58893e+08
9.58905e+08
9.58916e+08
9.58925e+08
9.58934e+08
9.62862e+08
9.62873e+08
9.62899e+08
9.62932e+08
9.62961e+08
9.62972e+08
9.67346e+08
9.67345e+08
9.67353e+08
9.67366e+08
9.67384e+08
9.67386e+08
9.71763e+08
9.71751e+08
9.71735e+08
9.7172e+08
9.71713e+08
9.7171e+08
9.75902e+08
9.75897e+08
9.75886e+08
9.75876e+08
9.7587e+08
9.75869e+08
9.79956e+08
9.79964e+08
9.79974e+08
9.79987e+08
9.79994e+08
9.79999e+08
9.84251e+08
9.84264e+08
9.84287e+08
9.84308e+08
9.84321e+08
9.84324e+08
9.88699e+08
9.88696e+08
9.88695e+08
9.88691e+08
9.88682e+08
9.88674e+08
9.92724e+08
9.92701e+08
9.92668e+08
9.92632e+08
9.926e+08
9.92588e+08
9.96273e+08
9.96256e+08
9.9622e+08
9.96182e+08
9.96155e+08
9.9615e+08
9.99886e+08
9.99894e+08
9.99906e+08
9.99921e+08
9.99928e+08
9.99936e+08
1.00442e+09
1.00445e+09
1.0045e+09
1.00455e+09
1.00457e+09
1.00458e+09
1.00949e+09
1.0095e+09
1.00952e+09
1.00954e+09
1.00955e+09
1.00955e+09
1.01401e+09
1.01398e+09
1.01395e+09
1.01392e+09
1.0139e+09
1.01389e+09
1.01768e+09
1.01765e+09
1.01762e+09
1.01759e+09
1.01757e+09
1.01757e+09
1.02096e+09
1.02095e+09
1.02093e+09
1.02092e+09
1.02091e+09
1.02091e+09
1.02452e+09
1.02453e+09
1.02454e+09
1.02456e+09
1.02456e+09
1.02456e+09
1.02862e+09
1.02864e+09
1.02866e+09
1.02868e+09
1.0287e+09
1.02871e+09
1.03299e+09
1.03298e+09
1.03299e+09
1.033e+09
1.03301e+09
1.03301e+09
1.03726e+09
1.03725e+09
1.03724e+09
1.03723e+09
1.03723e+09
1.03722e+09
1.04133e+09
1.04133e+09
1.04132e+09