/*--------------------------------*- C++ -*----------------------------------*\
| =========                 |                                                 |
| \\      /  F ield         | OpenFOAM: The Open Source CFD Toolbox           |
|  \\    /   O peration     | Version:  2206                                  |
|   \\  /    A nd           | Website:  www.openfoam.com                      |
|    \\/     M anipulation  |                                                 |
\*---------------------------------------------------------------------------*/
FoamFile
{
    version     2.0;
    format      ascii;
    arch        "LSB;label=32;scalar=64";
    class       surfaceScalarField;
    location    "10";
    object      phi;
}
// * * * * * * * * * * * * * * * * * * * * * * * * * * * * * * * * * * * * * //

dimensions      [0 3 -1 0 0 0 0];

oriented        oriented;

internalField   nonuniform List<scalar> 
94990
(
-3.32556e-24
1.54749e-21
6.71704e-23
3.19496e-22
-1.44358e-22
-3.18788e-22
6.43241e-24
2.07755e-22
-1.58084e-22
-2.01533e-22
-3.9899e-23
1.64006e-22
-1.50069e-22
-1.15219e-22
-5.88981e-23
1.16603e-22
-1.38423e-22
-7.52828e-23
-6.74303e-23
8.79478e-23
-1.29308e-22
-5.36187e-23
-7.28075e-23
6.91855e-23
-1.23304e-22
-4.03633e-23
-7.75949e-23
5.6271e-23
-1.20021e-22
-3.10498e-23
-8.25522e-23
4.69557e-23
-1.18831e-22
-2.39396e-23
-8.78258e-23
3.99525e-23
-1.19318e-22
-1.84262e-23
-9.35025e-23
3.45689e-23
-1.21261e-22
-1.41316e-23
-9.96888e-23
3.0384e-23
-1.24534e-22
-1.07475e-23
-1.06485e-22
2.71043e-23
-1.2905e-22
-8.03259e-24
-1.13968e-22
2.45143e-23
-1.34739e-22
-5.80983e-24
-1.22191e-22
2.24551e-23
-1.41544e-22
-3.95318e-24
-1.31188e-22
2.08093e-23
-1.49418e-22
-2.37382e-24
-1.40979e-22
1.94899e-23
-1.5832e-22
-1.00857e-24
-1.51575e-22
1.84319e-23
-1.68214e-22
1.88372e-25
-1.62981e-22
1.75859e-23
-1.79072e-22
1.251e-24
-1.75199e-22
1.69138e-23
-1.90868e-22
2.20519e-24
-1.8823e-22
1.63855e-23
-2.03581e-22
3.07122e-24
-2.02071e-22
1.5977e-23
-2.17192e-22
3.86521e-24
-2.16721e-22
1.56687e-23
-2.31686e-22
4.60009e-24
-2.32178e-22
1.54447e-23
-2.47047e-22
5.28628e-24
-2.48438e-22
1.52918e-23
-2.63264e-22
5.93229e-24
-2.65498e-22
1.51992e-23
-2.80327e-22
6.54502e-24
-2.83356e-22
1.51579e-23
-2.98225e-22
7.12999e-24
-3.02009e-22
1.51604e-23
-3.16951e-22
7.69165e-24
-3.21455e-22
1.52006e-23
-3.36497e-22
8.23363e-24
-3.41689e-22
1.52734e-23
-3.56857e-22
8.75887e-24
-3.6271e-22
1.53745e-23
-3.78026e-22
9.26971e-24
-3.84515e-22
1.55003e-23
-3.99997e-22
9.76805e-24
-4.07102e-22
1.56479e-23
-4.22766e-22
1.02555e-23
-4.30468e-22
1.58147e-23
-4.4633e-22
1.07332e-23
-4.54612e-22
1.59986e-23
-4.70685e-22
1.12024e-23
-4.79532e-22
1.61978e-23
-4.95827e-22
1.16639e-23
-5.05224e-22
1.64107e-23
-5.21754e-22
1.21185e-23
-5.31689e-22
1.66359e-23
-5.48462e-22
1.25669e-23
-5.58924e-22
1.68723e-23
-5.75949e-22
1.30097e-23
-5.86928e-22
1.71188e-23
-6.04213e-22
1.34473e-23
-6.15699e-22
1.73745e-23
-6.33251e-22
1.38804e-23
-6.45236e-22
1.76385e-23
-6.63062e-22
1.43092e-23
-6.75538e-22
1.79101e-23
-6.93644e-22
1.47342e-23
-7.06604e-22
1.81886e-23
-7.24996e-22
1.51557e-23
-7.38432e-22
1.84735e-23
-7.57115e-22
1.5574e-23
-7.71022e-22
1.87641e-23
-7.9e-22
1.59895e-23
-8.04373e-22
1.90601e-23
-8.23651e-22
1.64023e-23
-8.38483e-22
1.93609e-23
-8.58065e-22
1.68128e-23
-8.73352e-22
1.96662e-23
-8.93241e-22
1.72211e-23
-9.0898e-22
1.99755e-23
-9.2918e-22
1.76274e-23
-9.45364e-22
2.02886e-23
-9.65879e-22
1.8032e-23
-9.82506e-22
2.06052e-23
-1.00334e-21
1.84349e-23
-1.0204e-21
2.09249e-23
-1.04155e-21
1.88364e-23
-1.05906e-21
2.12475e-23
-1.08053e-21
1.92364e-23
-1.09847e-21
2.15729e-23
-1.12026e-21
1.96352e-23
-1.13863e-21
2.19007e-23
-1.16075e-21
2.00329e-23
-1.17955e-21
2.22309e-23
-1.202e-21
2.04294e-23
-1.22122e-21
2.25632e-23
-1.244e-21
2.0825e-23
-1.26364e-21
2.28975e-23
-1.28675e-21
2.12197e-23
-1.30681e-21
2.32337e-23
-1.33026e-21
2.16135e-23
-1.35074e-21
2.35717e-23
-1.37453e-21
2.20064e-23
-1.39542e-21
2.39112e-23
-1.41954e-21
2.23987e-23
-1.44085e-21
2.42523e-23
-1.46531e-21
2.27902e-23
-1.48704e-21
2.45949e-23
-1.51183e-21
2.31811e-23
-1.53397e-21
2.49388e-23
-1.55911e-21
2.35713e-23
-1.58165e-21
2.5284e-23
-1.60713e-21
2.39609e-23
-1.63009e-21
2.56303e-23
-1.65591e-21
2.43499e-23
-1.67927e-21
2.59779e-23
-1.70544e-21
2.47384e-23
-1.72921e-21
2.63265e-23
-1.75572e-21
2.51264e-23
-1.77989e-21
2.66761e-23
-1.80675e-21
2.55139e-23
-1.83132e-21
2.70267e-23
-1.85852e-21
2.59009e-23
-1.8835e-21
2.73782e-23
-1.91105e-21
2.62875e-23
-1.93643e-21
2.77305e-23
-1.96433e-21
2.66736e-23
-1.99011e-21
2.80838e-23
-2.01836e-21
2.70593e-23
-2.04454e-21
2.84378e-23
-2.07314e-21
2.74446e-23
-2.09971e-21
2.87925e-23
-2.12866e-21
2.78295e-23
-2.15564e-21
2.9148e-23
-2.18494e-21
2.8214e-23
-2.21231e-21
2.95042e-23
-2.24196e-21
2.85982e-23
-2.26973e-21
2.9861e-23
-2.29973e-21
2.89821e-23
-2.32789e-21
3.02185e-23
-2.35825e-21
2.93656e-23
-2.38681e-21
3.05766e-23
-2.41752e-21
2.97488e-23
-2.44647e-21
3.09353e-23
-2.47754e-21
3.01316e-23
-2.50688e-21
3.12945e-23
-2.5383e-21
3.05142e-23
-2.56803e-21
3.16543e-23
-2.59981e-21
3.08966e-23
-2.62993e-21
3.20145e-23
-2.66207e-21
3.12786e-23
-2.69258e-21
3.23753e-23
-2.72507e-21
3.16604e-23
-2.75598e-21
3.27365e-23
-2.78883e-21
3.2042e-23
-2.82012e-21
3.30981e-23
-2.85333e-21
3.24233e-23
-2.88501e-21
3.34602e-23
-2.91857e-21
3.28044e-23
-2.95064e-21
3.38227e-23
-2.98457e-21
3.31852e-23
-3.01703e-21
3.41856e-23
-3.05131e-21
3.35659e-23
-3.08415e-21
3.45488e-23
-3.1188e-21
3.39464e-23
-3.15203e-21
3.49124e-23
-3.18703e-21
3.43266e-23
-3.22065e-21
3.52764e-23
-3.25601e-21
3.47067e-23
-3.29001e-21
3.56407e-23
-3.32573e-21
3.50866e-23
-3.36012e-21
3.60053e-23
-3.39621e-21
3.54663e-23
-3.43098e-21
3.63702e-23
-3.46743e-21
3.58459e-23
-3.50258e-21
3.67354e-23
-3.53939e-21
3.62252e-23
-3.57493e-21
3.7101e-23
-3.6121e-21
3.66045e-23
-3.64803e-21
3.74668e-23
-3.68556e-21
3.69836e-23
-3.72187e-21
3.78328e-23
-3.75976e-21
3.73626e-23
-3.79645e-21
3.81991e-23
-3.83471e-21
3.77415e-23
-3.87178e-21
3.85656e-23
-3.9104e-21
3.81202e-23
-3.94786e-21
3.89323e-23
-3.98684e-21
3.84988e-23
-4.02468e-21
3.92993e-23
-4.06402e-21
3.88773e-23
-4.10225e-21
3.96665e-23
-4.14195e-21
3.92557e-23
-4.18056e-21
4.00339e-23
-4.22063e-21
3.9634e-23
-4.25962e-21
4.04014e-23
-4.30005e-21
4.00121e-23
-4.33942e-21
4.07692e-23
-4.38022e-21
4.03902e-23
-4.41997e-21
4.11371e-23
-4.46113e-21
4.07682e-23
-4.50126e-21
4.15052e-23
-4.54279e-21
4.11461e-23
-4.5833e-21
4.18735e-23
-4.62519e-21
4.15239e-23
-4.66608e-21
4.2242e-23
-4.70834e-21
4.19016e-23
-4.74961e-21
4.26106e-23
-4.79223e-21
4.22792e-23
-4.83388e-21
4.29794e-23
-4.87686e-21
4.26567e-23
-4.91889e-21
4.33483e-23
-4.96225e-21
4.30341e-23
-5.00466e-21
4.37174e-23
-5.04837e-21
4.34115e-23
-5.09116e-21
4.40866e-23
-5.13525e-21
4.37888e-23
-5.17841e-21
4.44559e-23
-5.22286e-21
4.41661e-23
-5.26641e-21
4.48253e-23
-5.31123e-21
4.45432e-23
-5.35515e-21
4.51949e-23
-5.40033e-21
4.49203e-23
-5.44463e-21
4.55646e-23
-5.49018e-21
4.52973e-23
-5.53486e-21
4.59344e-23
-5.58078e-21
4.56743e-23
-5.62584e-21
4.63044e-23
-5.67212e-21
4.60511e-23
-5.71756e-21
4.66744e-23
-5.76421e-21
4.6428e-23
-5.81002e-21
4.70446e-23
-5.85704e-21
4.68047e-23
-5.90323e-21
4.74149e-23
-5.95061e-21
4.71814e-23
-5.99718e-21
4.77853e-23
-6.04493e-21
4.7558e-23
-6.09188e-21
4.81557e-23
-6.14e-21
4.79346e-23
-6.18732e-21
4.85264e-23
-6.23581e-21
4.8311e-23
-6.2835e-21
4.88971e-23
-6.33236e-21
4.86875e-23
-6.38043e-21
4.92679e-23
-6.42966e-21
4.90639e-23
-6.47811e-21
4.96388e-23
-6.5277e-21
4.94402e-23
-6.57653e-21
5.00097e-23
-6.62649e-21
4.98166e-23
-6.67569e-21
5.03808e-23
-6.72602e-21
5.01928e-23
-6.7756e-21
5.07519e-23
-6.82629e-21
5.0569e-23
-6.87625e-21
5.11231e-23
-6.92731e-21
5.09452e-23
-6.97765e-21
5.14944e-23
-7.02908e-21
5.13213e-23
-7.07979e-21
5.18658e-23
-7.13159e-21
5.16974e-23
-7.18267e-21
5.22373e-23
-7.23484e-21
5.20734e-23
-7.2863e-21
5.26088e-23
-7.33884e-21
5.24494e-23
-7.39067e-21
5.29803e-23
-7.44358e-21
5.28253e-23
-7.49579e-21
5.3352e-23
-7.54906e-21
5.32012e-23
-7.60165e-21
5.37237e-23
-7.65529e-21
5.35771e-23
-7.70825e-21
5.40955e-23
-7.76227e-21
5.39529e-23
-7.8156e-21
5.44674e-23
-7.86999e-21
5.43286e-23
-7.9237e-21
5.48393e-23
-7.97845e-21
5.47043e-23
-8.03254e-21
5.52114e-23
-8.08766e-21
5.508e-23
-8.14212e-21
5.55834e-23
-8.19761e-21
5.54557e-23
-8.25244e-21
5.59555e-23
-8.3083e-21
5.58313e-23
-8.36351e-21
5.63277e-23
-8.41974e-21
5.62069e-23
-8.47533e-21
5.66999e-23
-8.53193e-21
5.65824e-23
-8.58788e-21
5.70722e-23
-8.64486e-21
5.69579e-23
-8.70119e-21
5.74446e-23
-8.75853e-21
5.73333e-23
-8.81523e-21
5.7817e-23
-8.87294e-21
5.77087e-23
-8.93002e-21
5.81894e-23
-8.9881e-21
5.80841e-23
-9.04556e-21
5.85619e-23
-9.10401e-21
5.84595e-23
-9.16184e-21
5.89345e-23
-9.22066e-21
5.88348e-23
-9.27886e-21
5.93071e-23
-9.33805e-21
5.92101e-23
-9.39662e-21
5.96798e-23
-9.45619e-21
5.95853e-23
-9.51513e-21
6.00525e-23
-9.57507e-21
5.99604e-23
-9.63439e-21
6.04253e-23
-9.69469e-21
6.03356e-23
-9.75439e-21
6.07982e-23
-9.81506e-21
6.07107e-23
-9.87513e-21
6.11711e-23
-9.93617e-21
6.10858e-23
-9.99661e-21
6.1544e-23
-1.0058e-20
6.14609e-23
-1.01188e-20
6.1917e-23
-1.01806e-20
6.18359e-23
-1.02418e-20
6.229e-23
-1.0304e-20
6.2211e-23
-1.03655e-20
6.26631e-23
-1.04281e-20
6.2586e-23
-1.049e-20
6.30362e-23
-1.05529e-20
6.29609e-23
-1.06152e-20
6.34093e-23
-1.06785e-20
6.33358e-23
-1.07412e-20
6.37825e-23
-1.08048e-20
6.37108e-23
-1.08678e-20
6.41557e-23
-1.09319e-20
6.40857e-23
-1.09953e-20
6.4529e-23
-1.10597e-20
6.44605e-23
-1.11235e-20
6.49023e-23
-1.11882e-20
6.48354e-23
-1.12524e-20
6.52756e-23
-1.13175e-20
6.52102e-23
-1.13821e-20
6.56489e-23
-1.14476e-20
6.55849e-23
-1.15125e-20
6.60223e-23
-1.15783e-20
6.59597e-23
-1.16436e-20
6.63958e-23
-1.17099e-20
6.63344e-23
-1.17755e-20
6.67693e-23
-1.18421e-20
6.6709e-23
-1.19082e-20
6.71429e-23
-1.19751e-20
6.70837e-23
-1.20416e-20
6.75164e-23
-1.21089e-20
6.74584e-23
-1.21757e-20
6.789e-23
-1.22434e-20
6.7833e-23
-1.23106e-20
6.82636e-23
-1.23787e-20
6.82076e-23
-1.24462e-20
6.86373e-23
-1.25146e-20
6.85822e-23
-1.25825e-20
6.90109e-23
-1.26514e-20
6.89568e-23
-1.27196e-20
6.93847e-23
-1.27889e-20
6.93313e-23
-1.28575e-20
6.97584e-23
-1.29271e-20
6.97058e-23
-1.29961e-20
7.01322e-23
-1.30661e-20
7.00803e-23
-1.31354e-20
7.0506e-23
-1.32058e-20
7.04548e-23
-1.32755e-20
7.08798e-23
-1.33462e-20
7.08292e-23
-1.34163e-20
7.12537e-23
-1.34874e-20
7.12036e-23
-1.35579e-20
7.16276e-23
-1.36294e-20
7.1578e-23
-1.37002e-20
7.20016e-23
-1.3772e-20
7.19523e-23
-1.38433e-20
7.23756e-23
-1.39155e-20
7.23266e-23
-1.39871e-20
7.27497e-23
-1.40596e-20
7.27009e-23
-1.41316e-20
7.31237e-23
-1.42046e-20
7.30752e-23
-1.42769e-20
7.34978e-23
-1.43502e-20
7.34496e-23
-1.44229e-20
7.38719e-23
-1.44966e-20
7.38239e-23
-1.45697e-20
7.42461e-23
-1.46438e-20
7.41981e-23
-1.47172e-20
7.46202e-23
-1.47917e-20
7.45724e-23
-1.48655e-20
7.49944e-23
-1.49403e-20
7.49466e-23
-1.50145e-20
7.53686e-23
-1.50897e-20
7.53209e-23
-1.51643e-20
7.57428e-23
-1.52398e-20
7.56951e-23
-1.53147e-20
7.61171e-23
-1.53907e-20
7.60693e-23
-1.5466e-20
7.64913e-23
-1.55423e-20
7.64435e-23
-1.5618e-20
7.68656e-23
-1.56946e-20
7.68177e-23
-1.57707e-20
7.72398e-23
-1.58477e-20
7.71919e-23
-1.59242e-20
7.76141e-23
-1.60016e-20
7.7566e-23
-1.60784e-20
7.79885e-23
-1.61561e-20
7.79401e-23
-1.62333e-20
7.83629e-23
-1.63115e-20
7.83142e-23
-1.6389e-20
7.87373e-23
-1.64675e-20
7.86883e-23
-1.65455e-20
7.91117e-23
-1.66244e-20
7.90624e-23
-1.67027e-20
7.94861e-23
-1.67819e-20
7.94365e-23
-1.68606e-20
7.98606e-23
-1.69402e-20
7.98106e-23
-1.70193e-20
8.0235e-23
-1.70993e-20
8.01847e-23
-1.71787e-20
8.06095e-23
-1.72591e-20
8.05587e-23
-1.73388e-20
8.0984e-23
-1.74196e-20
8.09328e-23
-1.74997e-20
8.13585e-23
-1.75809e-20
8.13068e-23
-1.76614e-20
8.1733e-23
-1.77429e-20
8.16808e-23
-1.78238e-20
8.21075e-23
-1.79057e-20
8.20548e-23
-1.79869e-20
8.24821e-23
-1.80692e-20
8.24288e-23
-1.81508e-20
8.28566e-23
-1.82334e-20
8.28028e-23
-1.83154e-20
8.32312e-23
-1.83984e-20
8.31767e-23
-1.84808e-20
8.36058e-23
-1.85642e-20
8.35506e-23
-1.86469e-20
8.39805e-23
-1.87306e-20
8.39245e-23
-1.88137e-20
8.43552e-23
-1.88979e-20
8.42984e-23
-1.89813e-20
8.47299e-23
-1.90658e-20
8.46722e-23
-1.91497e-20
8.51046e-23
-1.92346e-20
8.50461e-23
-1.93188e-20
8.54794e-23
-1.9404e-20
8.542e-23
-1.94886e-20
8.58541e-23
-1.95742e-20
8.57939e-23
-1.96592e-20
8.62288e-23
-1.97452e-20
8.61678e-23
-1.98305e-20
8.66036e-23
-1.99168e-20
8.65417e-23
-2.00025e-20
8.69783e-23
-2.00893e-20
8.69155e-23
-2.01753e-20
8.73531e-23
-2.02625e-20
8.72893e-23
-2.03489e-20
8.77279e-23
-2.04364e-20
8.76632e-23
-2.05232e-20
8.81027e-23
-2.0611e-20
8.8037e-23
-2.06982e-20
8.84775e-23
-2.07864e-20
8.84109e-23
-2.0874e-20
8.88523e-23
-2.09626e-20
8.87847e-23
-2.10505e-20
8.92272e-23
-2.11395e-20
8.91585e-23
-2.12278e-20
8.9602e-23
-2.13171e-20
8.95322e-23
-2.14058e-20
8.99769e-23
-2.14955e-20
8.9906e-23
-2.15845e-20
9.03518e-23
-2.16746e-20
9.02797e-23
-2.1764e-20
9.07267e-23
-2.18545e-20
9.06534e-23
-2.19443e-20
9.11017e-23
-2.20351e-20
9.10272e-23
-2.21252e-20
9.14766e-23
-2.22165e-20
9.14009e-23
-2.2307e-20
9.18515e-23
-2.23986e-20
9.17747e-23
-2.24894e-20
9.22265e-23
-2.25814e-20
9.21484e-23
-2.26726e-20
9.26014e-23
-2.2765e-20
9.25221e-23
-2.28566e-20
9.29763e-23
-2.29493e-20
9.28958e-23
-2.30413e-20
9.33513e-23
-2.31344e-20
9.32695e-23
-2.32267e-20
9.37263e-23
-2.33202e-20
9.36431e-23
-2.34129e-20
9.41013e-23
-2.35068e-20
9.40168e-23
-2.35999e-20
9.44764e-23
-2.36941e-20
9.43905e-23
-2.37875e-20
9.48514e-23
-2.38821e-20
9.47641e-23
-2.3976e-20
9.52264e-23
-2.40709e-20
9.51377e-23
-2.41651e-20
9.56015e-23
-2.42605e-20
9.55113e-23
-2.4355e-20
9.59766e-23
-2.44507e-20
9.58848e-23
-2.45457e-20
9.63517e-23
-2.46418e-20
9.62584e-23
-2.47371e-20
9.67269e-23
-2.48335e-20
9.66319e-23
-2.49292e-20
9.71021e-23
-2.5026e-20
9.70055e-23
-2.51221e-20
9.74773e-23
-2.52193e-20
9.73791e-23
-2.53157e-20
9.78525e-23
-2.54133e-20
9.77526e-23
-2.55101e-20
9.82276e-23
-2.5608e-20
9.81262e-23
-2.57052e-20
9.86028e-23
-2.58035e-20
9.84998e-23
-2.5901e-20
9.8978e-23
-2.59997e-20
9.88733e-23
-2.60976e-20
9.93532e-23
-2.61967e-20
9.92468e-23
-2.6295e-20
9.97285e-23
-2.63944e-20
9.96204e-23
-2.6493e-20
1.00104e-22
-2.65929e-20
9.99939e-23
-2.66919e-20
1.00479e-22
-2.67921e-20
1.00367e-22
-2.68914e-20
1.00854e-22
-2.6992e-20
1.00741e-22
-2.70917e-20
1.01229e-22
-2.71927e-20
1.01115e-22
-2.72928e-20
1.01605e-22
-2.73941e-20
1.01488e-22
-2.74946e-20
1.0198e-22
-2.75963e-20
1.01862e-22
-2.76972e-20
1.02355e-22
-2.77992e-20
1.02235e-22
-2.79004e-20
1.0273e-22
-2.80029e-20
1.02608e-22
-2.81045e-20
1.03106e-22
-2.82073e-20
1.02982e-22
-2.83092e-20
1.03481e-22
-2.84124e-20
1.03355e-22
-2.85148e-20
1.03856e-22
-2.86183e-20
1.03729e-22
-2.8721e-20
1.04232e-22
-2.8825e-20
1.04102e-22
-2.8928e-20
1.04607e-22
-2.90324e-20
1.04476e-22
-2.91358e-20
1.04982e-22
-2.92405e-20
1.04849e-22
-2.93443e-20
1.05358e-22
-2.94493e-20
1.05223e-22
-2.95535e-20
1.05733e-22
-2.9659e-20
1.05596e-22
-2.97635e-20
1.06108e-22
-2.98693e-20
1.0597e-22
-2.99742e-20
1.06484e-22
-3.00804e-20
1.06343e-22
-3.01857e-20
1.06859e-22
-3.02922e-20
1.06716e-22
-3.03979e-20
1.07234e-22
-3.05048e-20
1.0709e-22
-3.06108e-20
1.0761e-22
-3.07182e-20
1.07463e-22
-3.08245e-20
1.07985e-22
-3.09322e-20
1.07837e-22
-3.1039e-20
1.08361e-22
-3.1147e-20
1.0821e-22
-3.12542e-20
1.08736e-22
-3.13626e-20
1.08583e-22
-3.14701e-20
1.09112e-22
-3.15789e-20
1.08956e-22
-3.16868e-20
1.09487e-22
-3.1796e-20
1.0933e-22
-3.19042e-20
1.09863e-22
-3.20137e-20
1.09703e-22
-3.21223e-20
1.10238e-22
-3.22323e-20
1.10077e-22
-3.23412e-20
1.10614e-22
-3.24516e-20
1.1045e-22
-3.25609e-20
1.10989e-22
-3.26716e-20
1.10823e-22
-3.27813e-20
1.11364e-22
-3.28923e-20
1.11197e-22
-3.30024e-20
1.1174e-22
-3.31138e-20
1.1157e-22
-3.32243e-20
1.12116e-22
-3.33361e-20
1.11943e-22
-3.34469e-20
1.12491e-22
-3.35591e-20
1.12317e-22
-3.36703e-20
1.12866e-22
-3.37828e-20
1.1269e-22
-3.38944e-20
1.13242e-22
-3.40073e-20
1.13063e-22
-3.41192e-20
1.13617e-22
-3.42325e-20
1.13436e-22
-3.43448e-20
1.13993e-22
-3.44585e-20
1.1381e-22
-3.45711e-20
1.14369e-22
-3.46852e-20
1.14183e-22
-3.47982e-20
1.14744e-22
-3.49127e-20
1.14556e-22
-3.5026e-20
1.1512e-22
-3.51409e-20
1.14929e-22
-3.52546e-20
1.15495e-22
-3.53698e-20
1.15303e-22
-3.54839e-20
1.15871e-22
-3.55995e-20
1.15676e-22
-3.5714e-20
1.16247e-22
-3.58299e-20
1.16049e-22
-3.59448e-20
1.16622e-22
-3.60611e-20
1.16422e-22
-3.61763e-20
1.16998e-22
-3.6293e-20
1.16796e-22
-3.64086e-20
1.17373e-22
-3.65257e-20
1.17169e-22
-3.66416e-20
1.17749e-22
-3.67591e-20
1.17542e-22
-3.68754e-20
1.18125e-22
-3.69932e-20
1.17915e-22
-3.71099e-20
1.185e-22
-3.72281e-20
1.18288e-22
-3.73452e-20
1.18876e-22
-3.74637e-20
1.18662e-22
-3.75812e-20
1.19252e-22
-3.77001e-20
1.19035e-22
-3.78179e-20
1.19627e-22
-3.79372e-20
1.19408e-22
-3.80554e-20
1.20003e-22
-3.81751e-20
1.19781e-22
-3.82936e-20
1.20379e-22
-3.84137e-20
1.20154e-22
-3.85326e-20
1.20754e-22
-3.86531e-20
1.20527e-22
-3.87723e-20
1.2113e-22
-3.88932e-20
1.209e-22
-3.90128e-20
1.21506e-22
-3.9134e-20
1.21273e-22
-3.9254e-20
1.21882e-22
-3.93756e-20
1.21646e-22
-3.94959e-20
1.22258e-22
-3.96179e-20
1.2202e-22
-3.97386e-20
1.22633e-22
-3.9861e-20
1.22393e-22
-3.99821e-20
1.23009e-22
-4.01048e-20
1.22766e-22
-4.02262e-20
1.23385e-22
-4.03493e-20
1.23139e-22
-4.04712e-20
1.23761e-22
-4.05946e-20
1.23512e-22
-4.07168e-20
1.24137e-22
-4.08407e-20
1.23885e-22
-4.09632e-20
1.24512e-22
-4.10875e-20
1.24258e-22
-4.12104e-20
1.24888e-22
-4.1335e-20
1.24631e-22
-4.14583e-20
1.25264e-22
-4.15833e-20
1.25005e-22
-4.17069e-20
1.2564e-22
-4.18323e-20
1.25378e-22
-4.19563e-20
1.26016e-22
-4.2082e-20
1.25751e-22
-4.22064e-20
1.26391e-22
-4.23325e-20
1.26124e-22
-4.24573e-20
1.26767e-22
-4.25838e-20
1.26497e-22
-4.27089e-20
1.27143e-22
-4.28358e-20
1.2687e-22
-4.29613e-20
1.27519e-22
-4.30885e-20
1.27243e-22
-4.32144e-20
1.27895e-22
-4.3342e-20
1.27616e-22
-4.34682e-20
1.28271e-22
-4.35962e-20
1.27989e-22
-4.37228e-20
1.28647e-22
-4.38512e-20
1.28362e-22
-4.39782e-20
1.29022e-22
-4.41069e-20
1.28735e-22
-4.42342e-20
1.29398e-22
-4.43633e-20
1.29108e-22
-4.4491e-20
1.29774e-22
-4.46205e-20
1.29481e-22
-4.47486e-20
1.3015e-22
-4.48785e-20
1.29855e-22
-4.50069e-20
1.30526e-22
-4.51371e-20
1.30228e-22
-4.5266e-20
1.30902e-22
-4.53966e-20
1.30601e-22
-4.55258e-20
1.31278e-22
-4.56567e-20
1.30974e-22
-4.57863e-20
1.31653e-22
-4.59176e-20
1.31347e-22
-4.60476e-20
1.32029e-22
-4.61793e-20
1.3172e-22
-4.63096e-20
1.32405e-22
-4.64417e-20
1.32092e-22
-4.65724e-20
1.32781e-22
-4.67048e-20
1.32465e-22
-4.68359e-20
1.33157e-22
-4.69687e-20
1.32838e-22
-4.71001e-20
1.33533e-22
-4.72333e-20
1.33211e-22
-4.73651e-20
1.33909e-22
-4.74987e-20
1.33584e-22
-4.76309e-20
1.34285e-22
-4.77648e-20
1.33957e-22
-4.78973e-20
1.34661e-22
-4.80317e-20
1.3433e-22
-4.81646e-20
1.35037e-22
-4.82993e-20
1.34703e-22
-4.84325e-20
1.35413e-22
-4.85676e-20
1.35076e-22
-4.87012e-20
1.35789e-22
-4.88367e-20
1.35449e-22
-4.89707e-20
1.36165e-22
-4.91066e-20
1.35822e-22
-4.92409e-20
1.36541e-22
-4.93771e-20
1.36195e-22
-4.95118e-20
1.36917e-22
-4.96485e-20
1.36568e-22
-4.97835e-20
1.37293e-22
-4.99205e-20
1.36941e-22
-5.0056e-20
1.37669e-22
-5.01933e-20
1.37314e-22
-5.03291e-20
1.38045e-22
-5.04669e-20
1.37687e-22
-5.06031e-20
1.38421e-22
-5.07412e-20
1.3806e-22
-5.08777e-20
1.38797e-22
-5.10162e-20
1.38433e-22
-5.11531e-20
1.39173e-22
-5.1292e-20
1.38806e-22
-5.14293e-20
1.39549e-22
-5.15685e-20
1.39179e-22
-5.17062e-20
1.39925e-22
-5.18458e-20
1.39552e-22
-5.19838e-20
1.40301e-22
-5.21238e-20
1.39925e-22
-5.22622e-20
1.40677e-22
-5.24025e-20
1.40298e-22
-5.25413e-20
1.41053e-22
-5.2682e-20
1.40671e-22
-5.28212e-20
1.41429e-22
-5.29623e-20
1.41044e-22
-5.31018e-20
1.41805e-22
-5.32433e-20
1.41416e-22
-5.33831e-20
1.42181e-22
-5.3525e-20
1.41789e-22
-5.36652e-20
1.42557e-22
-5.38075e-20
1.42162e-22
-5.39481e-20
1.42933e-22
-5.40907e-20
1.42535e-22
-5.42316e-20
1.43309e-22
-5.43746e-20
1.42908e-22
-5.4516e-20
1.43685e-22
-5.46593e-20
1.43281e-22
-5.4801e-20
1.44062e-22
-5.49448e-20
1.43654e-22
-5.50868e-20
1.44438e-22
-5.5231e-20
1.44026e-22
-5.53734e-20
1.44814e-22
-5.55179e-20
1.44399e-22
-5.56607e-20
1.4519e-22
-5.58056e-20
1.44772e-22
-5.59487e-20
1.45566e-22
-5.6094e-20
1.45145e-22
-5.62375e-20
1.45943e-22
-5.63832e-20
1.45518e-22
-5.65271e-20
1.46319e-22
-5.66731e-20
1.4589e-22
-5.68173e-20
1.46695e-22
-5.69637e-20
1.46263e-22
-5.71083e-20
1.47071e-22
-5.72551e-20
1.46636e-22
-5.74001e-20
1.47447e-22
-5.75473e-20
1.47009e-22
-5.76926e-20
1.47823e-22
-5.78401e-20
1.47382e-22
-5.79859e-20
1.482e-22
-5.81338e-20
1.47755e-22
-5.82798e-20
1.48576e-22
-5.84281e-20
1.48127e-22
-5.85746e-20
1.48952e-22
-5.87232e-20
1.485e-22
-5.88701e-20
1.49328e-22
-5.90191e-20
1.48873e-22
-5.91663e-20
1.49704e-22
-5.93157e-20
1.49246e-22
-5.94632e-20
1.5008e-22
-5.9613e-20
1.49619e-22
-5.97609e-20
1.50457e-22
-5.99111e-20
1.49991e-22
-6.00594e-20
1.50833e-22
-6.02099e-20
1.50364e-22
-6.03586e-20
1.51209e-22
-6.05095e-20
1.50737e-22
-6.06585e-20
1.51585e-22
-6.08098e-20
1.5111e-22
-6.09592e-20
1.51962e-22
-6.11109e-20
1.51483e-22
-6.12606e-20
1.52338e-22
-6.14127e-20
1.51855e-22
-6.15628e-20
1.52714e-22
-6.17152e-20
1.52228e-22
-6.18657e-20
1.5309e-22
-6.20185e-20
1.52601e-22
-6.21694e-20
1.53466e-22
-6.23225e-20
1.52974e-22
-6.24738e-20
1.53843e-22
-6.26273e-20
1.53347e-22
-6.27789e-20
1.54219e-22
-6.29328e-20
1.53719e-22
-6.30848e-20
1.54595e-22
-6.32391e-20
1.54092e-22
-6.33914e-20
1.54971e-22
-6.35461e-20
1.54465e-22
-6.36988e-20
1.55347e-22
-6.38538e-20
1.54838e-22
-6.40069e-20
1.55724e-22
-6.41623e-20
1.5521e-22
-6.43158e-20
1.561e-22
-6.44716e-20
1.55583e-22
-6.46254e-20
1.56476e-22
-6.47816e-20
1.55956e-22
-6.49357e-20
1.56853e-22
-6.50923e-20
1.56328e-22
-6.52468e-20
1.57229e-22
-6.54037e-20
1.56701e-22
-6.55586e-20
1.57605e-22
-6.5716e-20
1.57074e-22
-6.58712e-20
1.57982e-22
-6.60289e-20
1.57446e-22
-6.61845e-20
1.58358e-22
-6.63426e-20
1.57819e-22
-6.64986e-20
1.58734e-22
-6.6657e-20
1.58192e-22
-6.68134e-20
1.59111e-22
-6.69722e-20
1.58565e-22
-6.71289e-20
1.59487e-22
-6.72881e-20
1.58937e-22
-6.74452e-20
1.59863e-22
-6.76048e-20
1.5931e-22
-6.77623e-20
1.6024e-22
-6.79222e-20
1.59683e-22
-6.80801e-20
1.60616e-22
-6.82404e-20
1.60055e-22
-6.83986e-20
1.60992e-22
-6.85593e-20
1.60428e-22
-6.87178e-20
1.61368e-22
-6.88789e-20
1.60801e-22
-6.90379e-20
1.61745e-22
-6.91993e-20
1.61173e-22
-6.93586e-20
1.62121e-22
-6.95204e-20
1.61546e-22
-6.96801e-20
1.62497e-22
-6.98423e-20
1.61919e-22
-7.00023e-20
1.62874e-22
-7.01649e-20
1.62291e-22
-7.03253e-20
1.6325e-22
-7.04883e-20
1.62664e-22
-7.06491e-20
1.63627e-22
-7.08124e-20
1.63037e-22
-7.09735e-20
1.64003e-22
-7.11373e-20
1.63409e-22
-7.12987e-20
1.64379e-22
-7.14628e-20
1.63782e-22
-7.16247e-20
1.64756e-22
-7.17892e-20
1.64155e-22
-7.19514e-20
1.65132e-22
-7.21163e-20
1.64527e-22
-7.22788e-20
1.65508e-22
-7.24441e-20
1.649e-22
-7.2607e-20
1.65885e-22
-7.27726e-20
1.65272e-22
-7.2936e-20
1.66261e-22
-7.31019e-20
1.65645e-22
-7.32656e-20
1.66638e-22
-7.3432e-20
1.66018e-22
-7.3596e-20
1.67014e-22
-7.37628e-20
1.6639e-22
-7.39272e-20
1.6739e-22
-7.40943e-20
1.66763e-22
-7.42591e-20
1.67767e-22
-7.44266e-20
1.67135e-22
-7.45918e-20
1.68143e-22
-7.47596e-20
1.67508e-22
-7.49252e-20
1.6852e-22
-7.50934e-20
1.6788e-22
-7.52593e-20
1.68896e-22
-7.54279e-20
1.68253e-22
-7.55942e-20
1.69273e-22
-7.57632e-20
1.68625e-22
-7.59298e-20
1.6965e-22
-7.60992e-20
1.68998e-22
-7.62662e-20
1.70026e-22
-7.64359e-20
1.6937e-22
-7.66033e-20
1.70403e-22
-7.67734e-20
1.69743e-22
-7.69411e-20
1.70779e-22
-7.71116e-20
1.70115e-22
-7.72797e-20
1.71156e-22
-7.74506e-20
1.70488e-22
-7.7619e-20
1.71532e-22
-7.77903e-20
1.7086e-22
-7.79591e-20
1.71909e-22
-7.81308e-20
1.71233e-22
-7.83e-20
1.72285e-22
-7.8472e-20
1.71606e-22
-7.86415e-20
1.72662e-22
-7.88139e-20
1.71978e-22
-7.89838e-20
1.73038e-22
-7.91566e-20
1.72351e-22
-7.93269e-20
1.73415e-22
-7.95001e-20
1.72723e-22
-7.96707e-20
1.73791e-22
-7.98442e-20
1.73096e-22
-8.00152e-20
1.74168e-22
-8.01891e-20
1.73468e-22
-8.03605e-20
1.74544e-22
-8.05348e-20
1.73841e-22
-8.07066e-20
1.74921e-22
-8.08812e-20
1.74213e-22
-8.10533e-20
1.75298e-22
-8.12284e-20
1.74586e-22
-8.14008e-20
1.75674e-22
-8.15763e-20
1.74958e-22
-8.17491e-20
1.76051e-22
-8.19249e-20
1.75331e-22
-8.20981e-20
1.76427e-22
-8.22743e-20
1.75703e-22
-8.24478e-20
1.76804e-22
-8.26244e-20
1.76076e-22
-8.27983e-20
1.7718e-22
-8.29753e-20
1.76449e-22
-8.31496e-20
1.77557e-22
-8.33269e-20
1.76821e-22
-8.35015e-20
1.77933e-22
-8.36792e-20
1.77193e-22
-8.38543e-20
1.7831e-22
-8.40323e-20
1.77566e-22
-8.42077e-20
1.78686e-22
-8.43862e-20
1.77939e-22
-8.45619e-20
1.79063e-22
-8.47408e-20
1.78311e-22
-8.49169e-20
1.7944e-22
-8.50961e-20
1.78684e-22
-8.52726e-20
1.79816e-22
-8.54522e-20
1.79056e-22
-8.5629e-20
1.80193e-22
-8.5809e-20
1.79428e-22
-8.59862e-20
1.80569e-22
-8.61665e-20
1.79801e-22
-8.63441e-20
1.80946e-22
-8.65248e-20
1.80173e-22
-8.67028e-20
1.81323e-22
-8.68839e-20
1.80546e-22
-8.70622e-20
1.81699e-22
-8.72437e-20
1.80918e-22
-8.74224e-20
1.82076e-22
-8.76042e-20
1.8129e-22
-8.77833e-20
1.82453e-22
-8.79655e-20
1.81663e-22
-8.81449e-20
1.82829e-22
-8.83275e-20
1.82035e-22
-8.85073e-20
1.83206e-22
-8.86903e-20
1.82408e-22
-8.88704e-20
1.83583e-22
-8.90538e-20
1.8278e-22
-8.92343e-20
1.83959e-22
-8.9418e-20
1.83153e-22
-8.95989e-20
1.84336e-22
-8.9783e-20
1.83525e-22
-8.99642e-20
1.84713e-22
-9.01487e-20
1.83898e-22
-9.03303e-20
1.85089e-22
-9.05152e-20
1.8427e-22
-9.06972e-20
1.85466e-22
-9.08824e-20
1.84643e-22
-9.10648e-20
1.85842e-22
-9.12504e-20
1.85015e-22
-9.14331e-20
1.86219e-22
-9.16191e-20
1.85388e-22
-9.18022e-20
1.86596e-22
-9.19886e-20
1.8576e-22
-9.2172e-20
1.86972e-22
-9.23588e-20
1.86132e-22
-9.25426e-20
1.87349e-22
-9.27297e-20
1.86505e-22
-9.29139e-20
1.87726e-22
-9.31014e-20
1.86877e-22
-9.32859e-20
1.88102e-22
-9.34738e-20
1.8725e-22
-9.36587e-20
1.88479e-22
-9.3847e-20
1.87622e-22
-9.40322e-20
1.88856e-22
-9.42209e-20
1.87994e-22
-9.44065e-20
1.89232e-22
-9.45955e-20
1.88367e-22
-9.47815e-20
1.89609e-22
-9.49709e-20
1.88739e-22
-9.51573e-20
1.89986e-22
-9.53471e-20
1.89111e-22
-9.55338e-20
1.90362e-22
-9.5724e-20
1.89484e-22
-9.59111e-20
1.90739e-22
-9.61016e-20
1.89856e-22
-9.62891e-20
1.91116e-22
-9.648e-20
1.90229e-22
-9.66678e-20
1.91492e-22
-9.68591e-20
1.90601e-22
-9.70473e-20
1.91869e-22
-9.7239e-20
1.90973e-22
-9.74275e-20
1.92246e-22
-9.76196e-20
1.91345e-22
-9.78085e-20
1.92623e-22
-9.80009e-20
1.91718e-22
-9.81902e-20
1.93e-22
-9.8383e-20
1.9209e-22
-9.85727e-20
1.93376e-22
-9.87658e-20
1.92462e-22
-9.89559e-20
1.93753e-22
-9.91494e-20
1.92834e-22
-9.93398e-20
1.9413e-22
-9.95337e-20
1.93207e-22
-9.97245e-20
1.94507e-22
-9.99188e-20
1.93579e-22
-1.0011e-19
1.94884e-22
-1.00305e-19
1.93951e-22
-1.00496e-19
1.95261e-22
-1.00691e-19
1.94324e-22
-1.00883e-19
1.95637e-22
-1.01078e-19
1.94696e-22
-1.01271e-19
1.96014e-22
-1.01466e-19
1.95068e-22
-1.01659e-19
1.96391e-22
-1.01855e-19
1.95441e-22
-1.02048e-19
1.96768e-22
-1.02245e-19
1.95813e-22
-1.02438e-19
1.97145e-22
-1.02635e-19
1.96185e-22
-1.02829e-19
1.97521e-22
-1.03026e-19
1.96558e-22
-1.0322e-19
1.97898e-22
-1.03418e-19
1.9693e-22
-1.03612e-19
1.98275e-22
-1.0381e-19
1.97302e-22
-1.04005e-19
1.98652e-22
-1.04204e-19
1.97674e-22
-1.04399e-19
1.99029e-22
-1.04598e-19
1.98047e-22
-1.04793e-19
1.99406e-22
-1.04992e-19
1.98419e-22
-1.05188e-19
1.99782e-22
-1.05388e-19
1.98791e-22
-1.05584e-19
2.00159e-22
-1.05784e-19
1.99164e-22
-1.05981e-19
2.00536e-22
-1.06181e-19
1.99536e-22
-1.06378e-19
2.00913e-22
-1.06579e-19
1.99908e-22
-1.06776e-19
2.0129e-22
-1.06977e-19
2.00281e-22
-1.07175e-19
2.01666e-22
-1.07376e-19
2.00653e-22
-1.07574e-19
2.02043e-22
-1.07776e-19
2.01025e-22
-1.07975e-19
2.0242e-22
-1.08177e-19
2.01397e-22
-1.08376e-19
2.02797e-22
-1.08578e-19
2.0177e-22
-1.08777e-19
2.03174e-22
-1.0898e-19
2.02142e-22
-1.0918e-19
2.0355e-22
-1.09383e-19
2.02514e-22
-1.09583e-19
2.03927e-22
-1.09787e-19
2.02886e-22
-1.09987e-19
2.04304e-22
-1.10191e-19
2.03258e-22
-1.10392e-19
2.04681e-22
-1.10597e-19
2.03631e-22
-1.10798e-19
2.05058e-22
-1.11002e-19
2.04003e-22
-1.11204e-19
2.05435e-22
-1.11409e-19
2.04375e-22
-1.11611e-19
2.05812e-22
-1.11816e-19
2.04747e-22
-1.12018e-19
2.06189e-22
-1.12225e-19
2.05119e-22
-1.12427e-19
2.06566e-22
-1.12633e-19
2.05492e-22
-1.12836e-19
2.06943e-22
-1.13043e-19
2.05864e-22
-1.13246e-19
2.0732e-22
-1.13453e-19
2.06236e-22
-1.13657e-19
2.07696e-22
-1.13864e-19
2.06608e-22
-1.14068e-19
2.08073e-22
-1.14276e-19
2.0698e-22
-1.1448e-19
2.0845e-22
-1.14689e-19
2.07353e-22
-1.14893e-19
2.08827e-22
-1.15102e-19
2.07725e-22
-1.15307e-19
2.09204e-22
-1.15516e-19
2.08097e-22
-1.15722e-19
2.09581e-22
-1.15931e-19
2.08469e-22
-1.16137e-19
2.09958e-22
-1.16347e-19
2.08841e-22
-1.16553e-19
2.10335e-22
-1.16763e-19
2.09213e-22
-1.16969e-19
2.10712e-22
-1.1718e-19
2.09585e-22
-1.17387e-19
2.11089e-22
-1.17598e-19
2.09958e-22
-1.17805e-19
2.11466e-22
-1.18016e-19
2.1033e-22
-1.18224e-19
2.11843e-22
-1.18435e-19
2.10702e-22
-1.18643e-19
2.1222e-22
-1.18855e-19
2.11074e-22
-1.19064e-19
2.12597e-22
-1.19276e-19
2.11446e-22
-1.19485e-19
2.12974e-22
-1.19698e-19
2.11818e-22
-1.19907e-19
2.1335e-22
-1.2012e-19
2.12191e-22
-1.20329e-19
2.13727e-22
-1.20543e-19
2.12563e-22
-1.20753e-19
2.14104e-22
-1.20967e-19
2.12935e-22
-1.21177e-19
2.14481e-22
-1.21391e-19
2.13307e-22
-1.21601e-19
2.14858e-22
-1.21816e-19
2.13679e-22
-1.22027e-19
2.15235e-22
-1.22242e-19
2.14051e-22
-1.22453e-19
2.15612e-22
-1.22669e-19
2.14423e-22
-1.2288e-19
2.15989e-22
-1.23096e-19
2.14795e-22
-1.23308e-19
2.16366e-22
-1.23524e-19
2.15167e-22
-1.23737e-19
2.16744e-22
-1.23953e-19
2.15539e-22
-1.24166e-19
2.17121e-22
-1.24383e-19
2.15911e-22
-1.24596e-19
2.17498e-22
-1.24814e-19
2.16283e-22
-1.25027e-19
2.17875e-22
-1.25245e-19
2.16655e-22
-1.25458e-19
2.18252e-22
-1.25677e-19
2.17027e-22
-1.25891e-19
2.18629e-22
-1.26109e-19
2.17399e-22
-1.26324e-19
2.19006e-22
-1.26543e-19
2.17771e-22
-1.26757e-19
2.19384e-22
-1.26977e-19
2.18143e-22
-1.27192e-19
2.19761e-22
-1.27412e-19
2.18515e-22
-1.27627e-19