/*--------------------------------*- C++ -*----------------------------------*\
| =========                 |                                                 |
| \\      /  F ield         | OpenFOAM: The Open Source CFD Toolbox           |
|  \\    /   O peration     | Version:  2206                                  |
|   \\  /    A nd           | Website:  www.openfoam.com                      |
|    \\/     M anipulation  |                                                 |
\*---------------------------------------------------------------------------*/
FoamFile
{
    version     2.0;
    format      ascii;
    arch        "LSB;label=32;scalar=64";
    class       surfaceScalarField;
    location    "10";
    object      phi;
}
// * * * * * * * * * * * * * * * * * * * * * * * * * * * * * * * * * * * * * //

dimensions      [0 3 -1 0 0 0 0];

oriented        oriented;

internalField   nonuniform List<scalar> 
65994
(
-9.35598e-14
1.0332e-13
7.1391e-13
-8.06042e-13
3.67863e-13
3.46592e-13
-1.74798e-12
2.1167e-12
-1.96476e-12
2.17783e-13
-1.96479e-12
2.9841e-13
-1.97973e-13
-1.80032e-12
1.29031e-12
-6.33472e-12
4.87906e-12
-5.87654e-12
1.65657e-12
-5.64063e-12
-1.98659e-14
-7.60541e-12
9.2539e-12
-9.45093e-12
3.91027e-12
6.63429e-12
-5.75047e-14
8.8471e-12
-8.19915e-12
9.79868e-12
-1.09788e-11
2.76043e-12
-1.85843e-11
1.76537e-11
-2.71088e-11
2.88532e-11
-4.56951e-12
2.55627e-11
1.21346e-11
8.35082e-12
2.70084e-11
4.49721e-12
6.61228e-12
-1.40871e-11
1.04836e-11
-3.75926e-11
2.30769e-11
-1.71629e-11
2.02792e-11
1.4932e-11
5.05487e-12
4.22326e-11
2.88456e-13
1.13785e-11
-1.37986e-11
1.76152e-13
-3.77692e-11
1.73517e-11
-3.43385e-11
2.87027e-11
3.58035e-12
2.2528e-11
4.84067e-11
2.5398e-12
3.1366e-11
-1.12588e-11
8.94885e-12
-4.67194e-11
2.08864e-11
-4.62777e-11
3.03757e-11
-5.90989e-12
2.45788e-11
5.4203e-11
1.64201e-11
3.95239e-11
5.16121e-12
-4.32964e-11
-3.42464e-12
-5.75379e-11
-3.20376e-11
-3.80361e-11
-2.54126e-11
6.47735e-12
9.68779e-12
8.6265e-12
3.73727e-11
1.37877e-11
-3.2141e-11
2.87139e-11
-6.30698e-11
-1.11048e-12
-5.07288e-11
-3.77557e-11
4.42588e-12
-4.54692e-11
3.5259e-11
6.53755e-12
4.90466e-11
1.82583e-11
1.04564e-11
8.18059e-12
8.96772e-12
-2.37785e-11
-5.79638e-12
-4.23824e-11
-2.68649e-11
-1.84505e-11
-1.7394e-11
3.05961e-11
6.17849e-11
-5.13289e-11
9.26409e-11
-2.18885e-11
6.89398e-11
1.79047e-11
2.69383e-11
1.51365e-11
-4.34264e-11
5.29707e-11
-1.28303e-11
3.32827e-11
-8.46105e-11
5.49864e-11
-4.35914e-11
6.62839e-11
6.60856e-12
3.66416e-11
4.47798e-11
-1.90485e-11
1.08661e-10
-3.18787e-11
-1.25679e-11
-7.20419e-11
-2.25134e-11
-3.36453e-11
-7.09216e-11
5.50171e-11
-1.04222e-10
7.80806e-11
-2.8979e-11
3.3419e-11
-6.08577e-11
-2.16877e-11
-5.03531e-11
-7.48933e-11
1.95614e-11
-1.4916e-10
1.29284e-10
-1.50288e-10
7.92092e-11
-3.40406e-11
-8.28274e-11
-9.48983e-11
1.50974e-11
-6.54497e-11
2.12038e-11
1.34563e-11
1.329e-11
1.37198e-10
-1.41748e-11
1.06675e-10
-5.54525e-11
-4.15488e-11
-1.50351e-10
1.58395e-11
-8.12853e-11
6.65039e-11
-3.72088e-11
1.25366e-10
7.83455e-11
1.12239e-10
1.19806e-10
4.20955e-11
2.86001e-11
-1.08255e-10
-5.7599e-11
-2.3692e-11
-9.19009e-11
-2.90834e-12
-1.40396e-11
4.72781e-13
8.46029e-11
2.11563e-11
9.35265e-11
1.96714e-11
-1.47289e-11
-3.28191e-11
9.12505e-12
-2.26743e-11
-1.3055e-11
-2.67268e-11
4.52367e-12
-1.92053e-11
1.36328e-11
1.71918e-11
-1.67277e-11
2.46287e-12
-3.33459e-12
1.2457e-11
-6.30663e-12
-1.00853e-11
-4.68061e-11
4.50215e-11
-5.95405e-11
2.63653e-11
-2.74996e-11
-4.87705e-11
-2.50368e-11
1.35244e-11
-1.06929e-12
6.59969e-11
-6.25593e-11
1.47326e-10
-3.63081e-11
1.4873e-10
2.49599e-11
6.67235e-11
3.32344e-11
4.16867e-11
9.12575e-11
-9.23296e-11
8.72111e-11
-5.85153e-11
6.71091e-11
-1.62082e-11
2.43792e-11
6.76884e-11
-3.38078e-11
9.14198e-11
7.8788e-12
-7.04468e-11
-2.18831e-11
-1.57418e-10
2.84555e-11
-2.31597e-10
5.79704e-11
-2.03252e-10
3.93438e-11
-8.98983e-11
-2.19346e-11
-8.20196e-11
-4.71468e-12
-1.717e-11
-3.82129e-11
6.19521e-11
-4.5653e-11
6.54085e-11
-7.33351e-11
6.7024e-11
-4.86465e-11
-4.6625e-11
-1.30666e-10
3.26783e-11
-4.98495e-11
1.24041e-10
-2.94122e-11
1.50095e-10
3.93545e-11
1.67525e-10
4.95937e-11
2.10871e-11
9.98117e-11
-1.09579e-10
-6.05572e-11
1.07029e-11
-5.20516e-11
-3.79211e-11
2.09868e-12
-1.48002e-11
8.3358e-11
-3.167e-11
-4.13259e-12
1.873e-10
-1.13712e-10
-3.11371e-12
1.38163e-11
-2.90638e-11
-1.19713e-11
-8.25882e-11
3.87239e-11
-1.03889e-10
-1.03696e-11
-2.56788e-11
1.09089e-10
-1.39391e-10
4.76443e-11
-3.38299e-11
1.53116e-11
2.03598e-11
-1.5129e-10
2.05324e-10
-2.06076e-10
4.44154e-11
-4.4805e-11
-5.21832e-11
-1.84195e-10
4.22436e-11
-7.60712e-11
3.3613e-11
2.89925e-11
-4.45286e-11
2.83467e-10
-1.07159e-10
1.07047e-10
-8.89121e-11
-7.04299e-11
-2.73108e-10
-6.96377e-11
-6.43582e-12
-1.4336e-10
1.02713e-10
-9.48694e-11
2.34975e-10
1.21282e-11
4.83851e-14
3.85939e-11
-9.68962e-11
-2.34514e-10
-5.64407e-11
5.00066e-11
-3.91461e-11
8.54196e-11
5.4779e-11
1.41052e-10
1.18993e-10
-6.41642e-11
1.03297e-10
-8.11988e-11
-1.31217e-10
9.94746e-11
-4.94674e-11
1.17532e-10
6.73625e-11
1.5547e-10
1.03115e-10
5.36247e-11
3.76811e-11
-6.71536e-11
3.95798e-11
-1.98371e-10
3.09245e-11
-8.03917e-11
5.09156e-11
4.73712e-11
-7.8593e-11
2.32624e-10
-1.81216e-10
1.40304e-10
-1.25619e-10
-1.60172e-11
-3.2399e-10
-1.61924e-10
8.15273e-11
-1.81544e-10
6.69863e-11
-1.26518e-10
1.77594e-10
-2.56122e-11
3.9397e-11
8.69903e-11
-1.28622e-10
-2.36999e-10
-1.50087e-10
2.31614e-10
-1.52121e-10
6.90194e-11
1.48432e-10
-1.22959e-10
2.67483e-10
-7.96546e-11
2.04645e-10
-6.57834e-11
-3.23545e-11
3.78128e-11
1.938e-10
8.9689e-11
1.71419e-11
-8.5638e-11
5.23672e-11
-1.04655e-10
-6.06387e-11
-1.02024e-10
-6.84149e-11
-1.34379e-10
4.84604e-11
1.45341e-10
-6.03551e-11
1.25958e-10
-1.36117e-10
1.28129e-10
-2.12948e-10
1.61934e-11
-1.98917e-10
-8.24459e-11
-3.33295e-10
5.02214e-12
1.40317e-10
-1.0857e-10
2.39548e-10
7.34933e-11
-5.39368e-11
1.31635e-10
-4.1949e-11
9.04795e-11
-4.12919e-11
-2.42816e-10
2.00166e-10
-5.98474e-11
3.40413e-10
9.93024e-11
2.59286e-10
2.71912e-11
2.30834e-10
-1.34962e-11
4.30308e-11
1.46513e-10
-1.99785e-10
3.30003e-10
-3.8985e-10
5.76647e-10
-1.47341e-10
3.37126e-10
2.66713e-10
1.94769e-10
1.28862e-10
-1.09455e-10
4.50737e-10
-3.0924e-10
-1.66253e-10
-2.23594e-10
-1.28064e-10
-1.85527e-10
-9.01409e-11
2.28791e-10
3.7223e-11
1.49961e-12
2.51423e-10
2.36538e-10
-5.78162e-11
-2.41823e-10
1.8228e-11
-4.97894e-10
7.0543e-11
-3.16145e-10
4.70409e-11
-1.86899e-10
-1.27747e-10
1.7491e-10
-1.2527e-10
1.17093e-10
-1.13104e-10
1.31334e-10
-2.52067e-10
2.09508e-10
-2.30255e-10
2.52302e-11
-2.11736e-10
-1.46265e-10
-1.48476e-10
-1.88529e-10
-3.13825e-11
6.48084e-11
6.65265e-11
2.12394e-10
6.19234e-11
1.40531e-10
9.70931e-11
-8.52698e-12
2.79354e-12
-1.02592e-10
-9.44638e-11
-1.33974e-10
9.59754e-11
-2.94459e-11
1.65509e-10
-7.60804e-12
2.63506e-10
-9.02474e-13
2.8523e-10
-1.8928e-11
1.31645e-10
5.91226e-11
-2.32883e-12
1.17894e-10
-1.47339e-10
1.85204e-10
-7.49167e-11
2.2692e-10
-4.26178e-11
8.51937e-11
1.22799e-10
5.10751e-11
9.32423e-11
4.87463e-11
9.70867e-11
-2.44424e-10
1.08505e-10
-8.63339e-11
1.36693e-10
-7.08039e-11
-1.95462e-11
2.79039e-10
-5.055e-11
1.24247e-10
-1.80375e-12
6.15824e-12
-2.50582e-10
2.54243e-11
-1.05599e-10
-6.42795e-11
1.89003e-11
8.17468e-11
1.33013e-10
3.74838e-11
1.68511e-10
3.56801e-11
-9.80571e-11
-1.52525e-10
-6.3883e-11
-1.39774e-10
-5.01663e-11
5.18439e-12
9.482e-11
-1.19729e-11
9.34751e-11
1.69856e-10
1.29155e-10
-2.08647e-10
5.61212e-11
-2.16782e-10
-1.3164e-10
-1.29473e-10
-8.21269e-11
-1.82014e-11
-1.23246e-10
6.9366e-11
8.22871e-11
1.98521e-10
1.15231e-10
-5.91098e-11
2.22514e-10
-2.38924e-10
1.40492e-10
-1.04339e-13
1.08081e-11
6.43746e-12
-1.42312e-11
1.07326e-10
1.8429e-10
2.16833e-10
-2.75943e-10
1.43807e-10
-1.65899e-10
7.89895e-11
6.47121e-11
-1.27706e-10
2.13132e-10
-6.45332e-11
4.41531e-11
1.19757e-10
-4.77599e-11
-2.28184e-10
-1.41028e-10
-7.26308e-11
1.76587e-11
-9.39753e-11
2.01005e-10
2.97849e-11
2.40398e-10
4.75979e-12
3.60155e-10
-1.14078e-10
-1.14108e-10
-2.31647e-10
4.49378e-11
-7.4044e-11
-2.5158e-10
1.14155e-10
-1.58416e-10
1.05074e-10
1.38396e-11
4.65229e-10
-4.35912e-11
-7.05157e-11
1.83224e-10
-1.81877e-10
2.05913e-10
-2.74269e-10
2.92504e-11
1.82465e-11
-8.14557e-11
1.24546e-10
3.83773e-10
-5.4456e-11
-1.606e-11
2.20002e-10
-4.56335e-10
2.92557e-10
-3.46824e-10
2.09787e-10
1.01016e-10
-8.22841e-11
4.16616e-10
3.01489e-10
-9.71904e-11
8.11304e-11
-4.03936e-10
-1.49589e-10
-5.83631e-10
-1.67128e-10
-3.62554e-10
-1.20061e-10
-1.3352e-10
1.87581e-10
1.6797e-10
2.9254e-12
7.82023e-11
-2.85498e-10
1.38831e-10
-5.66227e-10
1.136e-10
-5.32603e-10
-1.53686e-10
-2.03947e-10
-1.41076e-10
-3.59775e-11
1.15705e-10
-3.7503e-11
1.1828e-10
1.36257e-10
1.63114e-10
6.87665e-11
-4.92956e-11
5.87229e-11
-1.19761e-10
-7.06104e-11
-1.55738e-10
7.81925e-11
-1.15696e-10
-3.02953e-11
2.44744e-10
1.7655e-11
2.08158e-11
-5.20094e-11
1.28387e-10
-7.16255e-11
-5.09947e-11
-2.27364e-10
1.4605e-10
-2.61745e-10
1.26444e-11
3.78151e-10
-8.27071e-11
1.16168e-10
-1.2483e-10
1.70511e-10
-5.334e-11
-1.22484e-10
-2.80704e-10
-4.31334e-12
-2.57432e-10
4.66425e-10
-9.25876e-11
6.82271e-10
-9.96781e-11
5.64063e-10
2.88719e-10
2.14467e-10
2.27111e-10
-6.62367e-11
-1.54276e-10
-1.03155e-10
4.14085e-11
-2.88271e-10
2.21952e-10
-2.80221e-10
2.21458e-10
2.89214e-10
1.47106e-10
3.01464e-10
8.0869e-11
1.15392e-10
-2.18546e-10
-3.63386e-11
-1.36541e-10
-1.71171e-10
-1.45388e-10
7.60129e-11
4.20304e-11
4.00657e-11
3.37412e-10
1.20935e-10
8.30906e-11
-3.01637e-10
1.17127e-10
-1.70577e-10
1.08014e-10
-1.36275e-10
1.86686e-10
-3.66417e-11
1.70803e-11
5.07018e-10
1.38015e-10
-1.31727e-10
-1.69911e-10
-1.46337e-10
-1.55968e-10
-5.93442e-11
-2.23269e-10
-1.66537e-12
-9.43217e-11
1.15758e-10
3.89594e-10
2.53773e-10
4.72491e-11
-2.1716e-10
1.01915e-10
-2.10634e-10
2.06894e-11
-1.42043e-10
-2.17191e-10
1.43558e-10
2.93149e-11
1.43088e-10
2.83088e-10
1.91172e-10
-4.08332e-10
2.85975e-10
-3.05438e-10
1.87244e-10
-4.33125e-11
-2.20734e-10
5.51536e-10
-2.4304e-11
-5.33412e-11
2.58784e-10
-4.94052e-11
-3.58926e-10
-1.89687e-10
-1.65156e-10
-2.72638e-10
3.96387e-11
-1.91624e-10
4.70523e-10
-2.28628e-10
-1.63376e-11
3.01559e-11
8.5775e-11
-4.44702e-10
-6.61682e-11
-1.32131e-11
-4.04576e-10
3.78046e-10
-2.81941e-10
3.47888e-10
-4.92734e-10
1.94455e-10
-4.62578e-10
-1.44329e-10
-3.00372e-10
-9.60892e-11
-6.14526e-11
9.30888e-11
1.88869e-10
2.41036e-10
1.99941e-10
1.47155e-10
2.88336e-10
-3.15423e-10
-2.36038e-10
-6.43336e-11
-3.17599e-10
2.01091e-11
-1.00081e-10
-2.86494e-11
1.32017e-10
-3.21563e-11
3.19435e-10
1.00919e-10
4.01177e-12
3.61034e-10
-4.25367e-10
2.8422e-10
9.69238e-11
-7.48842e-11
3.30455e-10
-3.81533e-10
2.74493e-10
-3.83389e-10
1.02775e-10
-3.79377e-10
2.54669e-10
-6.80037e-10
3.3455e-10
1.70422e-11
6.36764e-10
2.82405e-11
6.02632e-10
3.08625e-10
2.65582e-10
4.39824e-10
-1.13795e-10
-9.69898e-11
-5.83047e-10
2.72618e-10
-3.52565e-10
7.18425e-10
-4.17566e-10
8.28628e-10
1.98422e-10
5.43415e-10
7.25038e-10
4.2962e-10
-2.25136e-10
-3.57911e-10
-2.95653e-10
-2.82048e-10
-3.64159e-10
-3.4906e-10
-1.79158e-10
1.34208e-11
3.96998e-11
5.06181e-10
4.6932e-10
-2.07947e-10
-1.49962e-10
-4.02678e-10
-8.73154e-11
-6.31452e-10
-1.20286e-10
-5.8071e-10
-3.732e-11
-3.33507e-10
2.58978e-10
1.35813e-10
-4.37065e-11
-1.06255e-10
1.10735e-11
-1.42095e-10
-1.33226e-10
2.40143e-11
-4.29999e-10
2.59453e-10
-3.3133e-10
1.60309e-10
-1.95516e-10
1.4098e-10
-2.47234e-10
-1.15556e-10
1.14443e-10
-2.66616e-10
1.75075e-10
-4.42829e-10
4.35666e-10
-1.84302e-10
-9.82164e-11
-3.79818e-10
1.26426e-10
-3.73658e-10
3.33978e-11
2.07472e-10
1.0767e-10
1.00804e-10
4.49268e-10
9.40698e-11
2.92575e-10
5.84775e-11
-8.72435e-11
-3.21025e-11
-3.41555e-10
4.07453e-10
-2.32083e-10
5.63389e-10
-5.51316e-11
5.14041e-10
1.43419e-10
1.97463e-10
3.75056e-10
1.10219e-10
-6.78429e-11
-2.73713e-10
-1.76256e-10
-1.2367e-10
-2.75619e-10
4.42301e-11
-3.11868e-10
1.79668e-10
-2.3659e-10
2.99777e-10
-1.26371e-10
6.3646e-11
-3.37359e-10
-2.17277e-10
1.57253e-10
-4.86909e-10
3.13862e-10
-4.10872e-10
1.0363e-10
-2.97722e-10
1.86628e-10
-4.24093e-10
-1.04632e-10
-2.32728e-10
-3.88463e-11
9.14672e-11
1.38842e-10
1.36174e-10
1.53708e-10
8.87629e-11
1.92046e-11
3.21132e-10
-4.04888e-10
-1.39336e-10
-9.33917e-11
-6.6194e-11
1.83253e-11
1.33106e-10
-6.31262e-11
3.80555e-11
1.83813e-10
5.07625e-11
3.08425e-10
-3.54126e-10
6.45622e-11
-1.57955e-10
6.10827e-11
2.1804e-11
-1.30695e-10
1.28651e-10
-2.52701e-10
3.05819e-10
-6.10509e-12
6.18277e-11
-3.60231e-10
-2.00824e-10
4.287e-11
-3.98182e-10
2.19162e-10
-2.59752e-10
-9.77821e-12
-3.07716e-10
3.53784e-10
-2.29336e-10
-1.65519e-11
-5.89567e-10
-1.73364e-10
2.16234e-10
-2.90582e-10
3.36381e-10
-1.62719e-10
-1.37641e-10
1.17869e-10
7.3196e-11
-4.8818e-12
1.06199e-10
-5.94449e-10
1.00457e-10
1.15779e-10
2.11562e-10
2.25277e-10
6.66294e-11
7.29212e-12
1.79113e-10
-3.92872e-11
1.42833e-10
1.4248e-10
-4.51616e-10
2.60639e-10
-1.4486e-10
5.34087e-10
-4.81712e-11
1.91213e-10
3.50166e-10
-2.57537e-10
4.09463e-10
-1.98472e-10
8.34152e-11
-6.50088e-10
-3.14269e-12
-1.41717e-10
1.48216e-10
-1.99529e-10
-5.85438e-12
5.04236e-10
-1.01741e-10
5.0535e-10
-7.22469e-12
-1.11003e-11
-6.57312e-10
-4.13494e-11
-1.00367e-10
-2.9312e-11
-2.11566e-10
4.0796e-10
6.69647e-11
8.07309e-10
1.06001e-10
5.05867e-10
2.90342e-10
-1.51445e-10
3.0655e-10
-4.06916e-10
4.22413e-10
-3.27428e-10
5.45523e-10
-5.61439e-11
5.24952e-10
1.26573e-10
2.99626e-10
5.15668e-10
1.48181e-10
3.15426e-10
-7.22341e-10
4.18728e-10
-4.30729e-10
1.82902e-10
1.79683e-10
5.74758e-11
2.52e-10
-4.15537e-11
6.14698e-10
1.06627e-10
1.84554e-10
-9.06895e-10
3.32914e-10
-5.79088e-10
1.8837e-10
3.24227e-10
-1.40111e-10
5.80481e-10
-8.51744e-11
5.59763e-10
2.14529e-11
-2.19628e-10
-6.87266e-10
-5.00411e-10
-2.98304e-10
-5.35764e-10
3.59581e-10
-6.50661e-10
6.95379e-10
-3.36831e-10
2.45934e-10
-3.15379e-10
-2.97309e-10
-3.89957e-10
-5.13237e-10
-8.23757e-11
-3.64869e-10
2.11214e-10
-7.25776e-11
4.03088e-10
-7.99752e-11
2.53332e-10
-3.95354e-10
8.58963e-13
-3.90816e-10
1.43813e-10
-2.25329e-10
1.08073e-10
2.46954e-10
-2.71088e-11
5.38269e-10
1.03888e-10
1.22334e-10
-2.91465e-10
-1.972e-10
-1.93615e-10
-1.98313e-10
-2.24216e-10
4.46274e-11
4.01411e-12
2.02338e-10
3.80558e-10
1.86124e-10
1.3855e-10
-1.05342e-10
-1.26947e-10
-6.66676e-11
-9.40162e-11
-2.57147e-10
8.14277e-11
-1.7143e-10
4.46458e-10
1.55283e-11
3.55945e-10
2.29063e-10
2.50604e-10
2.17613e-10
-2.8428e-10
3.82302e-10
-4.21835e-10
2.54327e-10
-4.34546e-11
1.93972e-10
7.58841e-11
5.25425e-11
3.70493e-10
3.03146e-10
-2.53745e-10
-3.05354e-11
-7.45496e-10
6.99169e-11
-8.54368e-10
6.54176e-11
-8.2912e-10
5.06367e-11
-5.28477e-10
6.98495e-11
-2.25331e-10
-1.70576e-10
1.40042e-10
-4.30071e-10
3.29413e-10
-3.02579e-10
-6.20735e-11
-3.0101e-11
-2.21841e-10
1.21476e-10
-8.17266e-11
-1.03855e-10
3.56051e-10
-2.16008e-10
7.7294e-10
-8.74754e-11
6.59073e-10
5.17945e-11
3.52387e-10
8.48467e-11
7.09262e-11
1.99735e-10
-3.29285e-11
-4.95262e-11
-1.6648e-10
-1.68927e-10
3.19265e-11
-5.89377e-11
-5.81939e-11
-6.47393e-10
6.73304e-10
-6.14233e-10
1.66576e-10
-6.47161e-10
2.52903e-10
-4.19382e-10
-2.70606e-11
3.11892e-10
-1.00361e-10
1.51077e-11
-1.79452e-10
7.52395e-10
-3.78519e-10
3.65644e-10
-1.02568e-09
6.32592e-11
-4.82639e-10
4.67932e-10
-9.27793e-11
-3.29797e-10
8.12839e-10
-1.12342e-11
4.33834e-10
9.53614e-11
2.59049e-10
-9.30319e-10
-5.01168e-10
1.85303e-11
-3.86251e-10
-2.07695e-10
2.53747e-10
1.72842e-10
3.08605e-10
3.78977e-10
3.85785e-10
1.8187e-10
-5.44534e-10
-4.71711e-10
4.90243e-10
-5.06327e-10
-1.73078e-10
-5.16413e-10
1.82929e-10
-5.31147e-10
3.93712e-10
-2.69665e-10
-7.96111e-11
-8.14198e-10
1.10059e-09
-6.10345e-10
1.65849e-09
-7.30967e-10
1.01967e-09
8.21749e-10
3.81398e-10
1.03198e-09
1.58214e-10
1.43574e-10
-6.55985e-10
8.65781e-10
-1.47613e-09
7.97441e-10
-6.62627e-10
1.12525e-09
4.93937e-10
1.20235e-09
9.54883e-10
6.79104e-10
6.66823e-10
2.3119e-11
-1.00681e-09
-4.69316e-10
-1.53023e-09
-1.39207e-10
-6.51575e-10
-3.8472e-10
2.37192e-10
6.61159e-11
1.98807e-11
8.84135e-10
4.29997e-11
-5.34821e-10
6.55064e-11
-1.18799e-09
5.13959e-10
-1.50684e-09
-6.58628e-11
-1.01092e-09
-4.29807e-10
-1.1467e-10
-1.21101e-11
-7.16699e-11
-1.46418e-11
8.0148e-11
-1.11687e-10
6.11006e-10
-6.75858e-10
4.98306e-10
-7.29629e-10
-3.76037e-10
-3.58049e-10
-3.83691e-10
-4.29719e-10
-4.7106e-11
1.27253e-10
2.05012e-10
3.58887e-10
2.19707e-10
4.83611e-10
-8.96317e-12
-1.47367e-10
-1.11881e-10
-2.80773e-10
-5.416e-10
5.8823e-11
6.84307e-11
3.05047e-10
1.12663e-10
3.22854e-10
4.65803e-10
-2.13689e-12
1.77625e-10
-2.33015e-11
-2.59608e-10
-5.64902e-10
3.45638e-10
-2.77209e-10
5.71729e-10
-1.13429e-10
6.39818e-10
3.97714e-10
4.26006e-10
3.91436e-10
1.63062e-10
3.33405e-12
-4.0184e-10
1.97452e-10
-4.74662e-10
6.6715e-11
1.7308e-11
-1.39481e-11
4.78376e-10
5.47051e-11
3.22782e-10
-6.29086e-11
1.20947e-10
-4.64748e-10
-2.09973e-11
-4.53665e-10
-2.24993e-11
1.88096e-11
1.26096e-10
3.2978e-10
1.24527e-10
3.2435e-10
2.13624e-11
2.24112e-10
-4.43386e-10
-2.22777e-10
-2.30889e-10
-1.79082e-10
-2.48862e-11
9.13765e-12
1.41561e-10
2.60217e-11
3.07466e-10
1.52379e-10
9.77544e-11
-2.91007e-10
1.57391e-10
-3.88281e-10
2.26916e-10
-9.44109e-11
-2.21994e-11
3.90675e-10
-1.99471e-10
4.84737e-10
-4.76013e-11
-5.41156e-11
-3.38608e-10
-4.29889e-12
-3.83983e-10
-6.56786e-11
-3.30321e-11
-1.09756e-10
4.34751e-10
-1.25401e-10
5.00381e-10
-6.64518e-11
-1.13066e-10
-4.0506e-10
-3.91442e-10
7.45875e-12
-4.60948e-10
3.64744e-11
-5.05177e-10
4.7898e-10
-7.39755e-11
6.91799e-11
4.03931e-11
-2.27434e-10
-3.64667e-10
-2.18461e-10
2.25919e-10
-4.19026e-10
2.37039e-10
-4.95295e-10
5.55248e-10
-9.14691e-11
-3.34646e-10
-2.31111e-10
-8.77931e-11
-5.95778e-10
4.62618e-10
-2.36698e-10
5.86192e-10
1.13465e-10
8.32945e-10
3.08496e-10
5.39172e-10
-4.08733e-11
-3.02663e-10
7.54043e-10
-8.98441e-10
4.78565e-10
-7.15263e-10
5.12076e-10
7.99542e-11
1.25765e-09
-4.37073e-10
1.13852e-09
7.82503e-11
7.90375e-10
1.10219e-09
-1.08066e-10
-5.61252e-10
-1.54011e-10
-2.8178e-10
-1.99516e-10
-4.13123e-10
-3.0573e-10
-1.40978e-10
-1.93894e-10
4.56306e-10
5.04906e-10
3.4824e-10
-1.80242e-10
2.62311e-11
-1.74201e-10
-2.05556e-10
-1.94719e-10
-2.85212e-10
-1.4333e-10
-2.45282e-10
5.82762e-11
3.033e-10
4.06516e-10
3.79371e-10
-3.5314e-10
5.2596e-10
-3.52145e-10
2.42579e-10
-1.83131e-12
-3.40464e-10
3.37762e-10
-4.1655e-10
3.79386e-10
-1.00341e-11
6.31041e-11
-4.16244e-10
-2.51112e-10
-3.79298e-11
-4.72121e-10
2.19177e-10
-5.05764e-10
3.71405e-10
-2.58747e-10
1.32368e-10
-2.68781e-10
-1.60122e-11
-4.00232e-10
-1.68426e-10
1.14484e-10
-4.10873e-10
4.61625e-10
-5.5413e-10
5.14661e-10
-2.30719e-10
-1.91042e-10
-4.995e-10
7.33546e-11
-4.73587e-10
1.95401e-10
-7.56276e-12
2.11424e-10
4.45602e-10
7.99553e-11
6.4613e-10
-5.04083e-11
-6.06787e-11
-5.49908e-10
-1.53011e-10
-3.20575e-10
-2.41328e-10
8.07547e-11
-1.4833e-10
3.52603e-10
2.30451e-10
2.6735e-10
1.07382e-10
6.23907e-11
-4.42527e-10
-9.07483e-11
-2.29827e-10
-2.78337e-11
1.78399e-11
-1.88866e-10
5.13636e-10
7.19717e-11
6.51158e-12
1.82438e-10
-4.8076e-11
-2.60088e-10
7.14515e-10
-9.44342e-10
9.33989e-10
-2.01634e-10
9.59481e-10
4.88144e-10
1.07006e-09
-1.04067e-10
2.88626e-10
7.33358e-10
2.85374e-11
2.15529e-10
-1.15987e-09
6.57016e-10
-6.4312e-10
1.69498e-09
-5.49824e-10
1.94782e-09
-3.569e-10
1.18462e-09
1.49656e-09
1.21315e-09
-7.66245e-10
-3.93625e-10
-1.108e-09
-3.01363e-10
-7.17352e-10
-9.40475e-10
-5.66289e-10
-5.07962e-10
-9.99804e-11
1.03025e-09
1.11317e-09
-1.41758e-10
-2.51867e-10
-6.74432e-10
2.31311e-10
-1.38581e-09
-2.29095e-10
-1.74497e-09
-1.48802e-10
-1.12827e-09
4.13551e-10
-1.50981e-11
-2.50302e-10
-1.56425e-12
-3.17181e-10
2.9819e-10
-5.7952e-10
3.32441e-11
-6.36082e-10
-9.22398e-11
-1.83118e-10
-3.94125e-11
-1.98216e-10
-1.49255e-10
1.47691e-10
-3.34261e-10
4.83196e-10
-5.68971e-10
2.67955e-10
-7.10755e-10
4.95442e-11
-2.61413e-10
-4.88754e-10
-4.59629e-10
-1.61034e-10
3.08725e-10
-2.1433e-10
5.36493e-10
-6.45341e-10
6.98966e-10
-6.9249e-10
9.6694e-11
-5.55924e-10
-6.2532e-10
-1.01555e-09
-1.24143e-10
4.32868e-10
-2.93821e-10
7.06172e-10
-6.06428e-10
1.01157e-09
-2.86193e-10
-2.23541e-10
-4.67105e-11
-8.64802e-10
-1.06226e-09
-8.45175e-11
5.17387e-10
-5.79124e-10
1.20078e-09
2.40079e-10
1.92369e-10
9.45847e-10
-9.29308e-10
8.77724e-10
-7.9668e-10
-1.84539e-10
4.00099e-10
1.17288e-10
1.2319e-09
3.68983e-10
1.70096e-09
-2.767e-10
9.49882e-10
-1.78225e-10
3.40997e-10
-1.87795e-10
1.56458e-10
3.39541e-10
-2.22253e-10
1.1693e-09
-4.60773e-10
1.0382e-09
-1.45601e-10
1.90027e-10
6.69948e-10
-3.96195e-10
3.98427e-10
-2.39736e-10
5.66233e-10
-7.88486e-10
7.38524e-10
-6.33064e-10
7.38177e-10
-1.45254e-10
9.26599e-10
4.81526e-10
3.96382e-10
9.28644e-10
1.56646e-10
3.59357e-10
-1.14784e-09
8.57144e-10
-1.13085e-09
8.52276e-10
-1.40385e-10
6.68878e-10
6.64923e-10
7.05959e-10
8.91563e-10
8.62605e-10
5.75096e-12
-1.15359e-09
2.69168e-10
-1.39427e-09
4.66638e-10
-3.37855e-10
2.94928e-10
8.36633e-10
1.61393e-11
1.17035e-09
8.78744e-10
-5.36233e-10
-6.1736e-10
-1.4196e-09
-5.10904e-10
-1.07473e-09
-6.82728e-10
-4.03062e-10
1.64969e-10
-2.67221e-10
1.03451e-09
6.11523e-10
-5.39853e-10
-7.75068e-11
-1.53549e-09
4.84737e-10
-2.0667e-09
-1.51518e-10
-1.91819e-09
1.64513e-11
-8.11103e-10
-7.25721e-11
-1.9958e-10
-6.79854e-11
-9.52098e-12
2.49995e-11
3.91752e-10
-5.90446e-10
4.63928e-10
-8.52267e-10
2.78273e-10
-6.81432e-10
-2.43408e-10
-8.81011e-10
1.94049e-10
-2.0357e-10
5.4214e-10
4.36612e-11
4.36052e-10
5.70017e-10
5.45685e-10
1.68639e-10
-3.41699e-10
6.43977e-10
-1.22271e-09
-1.39359e-10
-6.42106e-11
-2.82634e-10
1.86936e-10
4.58865e-10
-1.71482e-10
6.53471e-10
-2.59654e-11
6.20539e-11
1.23539e-09
-1.16066e-09
2.91323e-10
-3.55534e-10
1.59172e-10
3.19088e-10
3.96447e-12
-1.62746e-11
-4.93544e-11
2.73534e-11
5.45681e-10
6.40358e-10
-6.14975e-10
1.48125e-10
-5.03658e-10
8.06353e-10
-3.3914e-10
3.65075e-10
4.25003e-10
3.21461e-10
7.09677e-11
8.97507e-10
6.43125e-11
2.82532e-10
-1.04741e-10
-3.98917e-10
2.07867e-10
-6.51747e-10
9.12378e-11
5.41632e-10
5.94141e-11
1.02792e-10
-2.43005e-10
3.66731e-10
3.95269e-11
9.47324e-10
-1.34624e-09
4.34931e-10
-1.39353e-10
1.35756e-09
-3.80995e-10
-3.83128e-11
1.49866e-09
-9.41009e-10
1.26943e-09
-9.01482e-10
4.8325e-10
-1.82949e-09
8.60419e-10
-5.16522e-10
1.49087e-09
-1.01145e-09
7.92562e-10
2.19698e-09
4.19714e-10
1.64228e-09
-4.81768e-10
-6.82845e-10
-1.14665e-09
-2.00546e-10
-9.98821e-10
-8.67266e-10
-3.44729e-10
-1.0829e-10
1.438e-09
3.17509e-10
1.21648e-09
-1.64259e-10
-8.60376e-10
-2.86268e-10
-2.1429e-09
2.83702e-10
-2.96778e-09
4.8015e-10
-1.87232e-09
3.42546e-10
-7.24979e-10
6.91348e-11
-8.89239e-10
-3.76771e-10
9.05033e-11
-7.74588e-10
6.8152e-10
-1.03201e-09
7.37574e-10
-5.27145e-10
-1.62319e-10
-1.67629e-10
-2.9038e-10
-1.05687e-09
-2.16167e-11
1.1212e-10
5.41955e-10
1.17948e-10
1.15202e-09
1.27505e-10
1.19182e-09
-2.02111e-10
8.38453e-10
6.29831e-11
-2.18415e-10
2.74531e-10
-1.6241e-10
6.17584e-10
-2.25105e-10
7.29728e-10
1.53605e-11
4.05143e-10
1.22475e-10
1.34867e-10
3.3326e-10
-8.35482e-11
4.25273e-10
-5.87683e-10
1.2171e-10
7.84584e-11
-3.29349e-10
4.6642e-10
-4.66563e-10
2.59689e-10
-2.51518e-10
1.18215e-10
-3.35066e-10
-2.15891e-10
-3.71792e-10
-4.17751e-10
2.80319e-10
-4.04507e-10
4.53176e-10
-4.00743e-10
2.55925e-10
-1.12339e-10
-1.70188e-10
-4.47404e-10
-2.12483e-10
-1.59309e-10
1.15749e-10
-4.79117e-11
4.11015e-10
1.5791e-10
3.48029e-10
3.18912e-10
1.67889e-10
9.95198e-12
-2.79515e-10
-1.21795e-10
-3.7513e-11
4.10836e-11
-2.10789e-10
3.18159e-10
-1.19164e-10
5.0111e-10
1.35962e-10
2.83802e-10
2.2726e-10
4.28672e-12
6.02262e-11
-9.77386e-11
-1.45798e-10
-4.76387e-12
-3.12234e-10
4.72723e-11
-3.17734e-10
1.41462e-10
-1.75749e-10
8.52762e-11
-1.71463e-10
2.9951e-11
-1.27689e-10
-3.47074e-10
3.72262e-10
-6.8601e-10
3.86208e-10
-7.04715e-10
1.60167e-10
-2.60063e-10
-3.59375e-10
-4.31526e-10
2.29656e-10
-3.57344e-10
8.59594e-11
5.15959e-10
8.00621e-11
3.92106e-10
5.6844e-11
1.83386e-10
-4.83511e-11
-2.54179e-10
-4.79877e-10
8.6872e-11
-4.44216e-10
2.53627e-10
3.49204e-10
2.72599e-10
3.73135e-10
6.76264e-11
3.8836e-10
-6.21079e-11
-1.24444e-10
-5.41985e-10
-5.81557e-11
-3.86059e-10
3.22639e-11
2.58785e-10
-3.07076e-10
7.12475e-10
-6.21244e-10
7.02529e-10
-5.57313e-10
-1.88375e-10
-1.0993e-09
-4.5266e-10
6.66013e-11
-6.57712e-10
4.63839e-10
-7.20595e-10
7.75358e-10
-7.18956e-10
7.0089e-10
-3.04525e-10
-6.02806e-10
-1.40382e-09
-4.28954e-10
4.95555e-10
2.82921e-11
6.59328e-12
1.66027e-09
-8.56615e-10
2.47177e-09
-1.10613e-10
1.48913e-09
3.79836e-10
8.53054e-11
8.90374e-10
-3.94818e-10
1.6994e-09
-8.02431e-10
1.74422e-09
-9.01438e-10
1.54847e-09
8.51402e-11
5.82354e-10
1.34595e-09
6.67659e-10
3.85233e-10
-7.8005e-10
-6.16845e-11
-3.55514e-10
-1.42989e-09
4.66766e-10
-1.70013e-09
3.55386e-10
-1.00121e-09
6.47026e-10
-3.33549e-10
6.86761e-11
-8.48726e-10
-3.89978e-10
1.03141e-10
-1.10091e-09
1.1777e-09
-1.11e-09
3.64476e-10
-5.44674e-10
8.16995e-11
-8.78223e-10
-1.41566e-10
-7.0716e-10
-4.53237e-10
4.14812e-10
-2.02154e-10
9.26615e-10
-2.93863e-10
4.56185e-10
-5.66881e-11
-1.55475e-10
-9.34911e-10
-3.02217e-11
-6.76939e-10
-6.57418e-10
1.04201e-09
-4.82796e-10
7.51993e-10
-3.9672e-10
3.70109e-10
-2.67113e-10
-2.85082e-10
-1.20202e-09
-2.51034e-10
-4.25905e-10
6.28532e-11
7.28121e-10
4.17596e-10
3.9725e-10
5.2051e-10
2.67196e-10
3.44993e-10
-1.09566e-10
-8.57031e-10
-1.04075e-10
-3.2183e-10
3.98754e-10
2.25293e-10
8.56795e-10
-6.07899e-11
8.52425e-10
2.71565e-10
4.76637e-10
2.66223e-10
-3.80394e-10
7.91697e-10
-1.11353e-09
1.57832e-09
-5.61332e-10
1.2523e-09
2.6523e-10
1.62974e-10
1.36089e-09
-4.17124e-10
8.46321e-10
-7.97518e-10
8.15372e-10
-1.9289e-09
1.75251e-09
-1.49847e-09
1.36979e-09
6.47956e-10
8.79606e-10
1.85107e-09
-2.05661e-10
1.93159e-09
-1.00318e-09
-2.42114e-10
-1.68678e-09
-5.83332e-10
-1.15725e-09
-1.71858e-09
1.7832e-09
-1.58295e-09
1.71544e-09
-8.09686e-10
1.15833e-09
-1.81287e-09
1.61799e-10
-1.84858e-09
3.19074e-10
-1.31453e-09
1.03433e-09
1.06795e-09
1.75114e-09
9.9863e-10
1.50767e-09
1.4018e-09
-3.05195e-10
-8.85449e-10
-9.63134e-10
-7.12381e-10
-1.4876e-09
6.50296e-10
-2.9473e-10
1.28769e-09
3.6124e-10
1.80354e-09
8.85946e-10
1.49834e-09
-9.54995e-10
-8.13815e-12
-1.04105e-09
-1.40154e-09
-4.08294e-10
-9.27488e-10
-4.48404e-10
4.0135e-10
1.65738e-10
2.71804e-10
1.66408e-09
4.32535e-10
-4.40673e-10
1.73321e-13
-9.69175e-10
-3.1564e-11
-8.95751e-10
-2.55618e-10
6.25404e-10
-7.8914e-10
8.05326e-10
8.74941e-10
2.70772e-10
-7.11445e-10
-8.35875e-10
1.37471e-10
-2.12193e-09
3.90305e-10
-1.70792e-09
2.11398e-10
-8.83606e-10
-1.89919e-11
-8.6655e-12
-8.57548e-11
-6.2569e-10
-6.18028e-10
6.69744e-10
-1.25355e-09
1.02582e-09
-1.19236e-09
1.50211e-10
-9.78717e-10
-2.32635e-10
-9.87382e-10
-5.68909e-10
-5.67804e-11
-1.09179e-09
1.19263e-09
-6.58418e-10
5.92451e-10
-5.59698e-10
5.14912e-11
-8.20942e-10
2.86089e-11
-1.80832e-09
8.28918e-11
-1.39672e-10
2.4174e-10
1.03378e-09
1.10437e-09
-2.70181e-10
8.89509e-10
2.66356e-10
1.28424e-10
7.89694e-10
-1.6799e-09
8.16847e-10
-9.56519e-10
1.66631e-09
1.8432e-10
1.2472e-09
1.48925e-10
6.95296e-10
8.18261e-10
9.7068e-10
5.1431e-10
-7.0922e-10
-1.41403e-09
4.57511e-10
-3.61454e-09
2.38483e-09
-4.24681e-09
7.81191e-10
-2.96686e-09
-4.61685e-10
-8.58532e-10
-1.59402e-09
-1.56775e-09
-2.08691e-09
2.54442e-09
-3.05802e-09
3.35594e-09
-3.55967e-09
1.28285e-09
-1.96949e-09
-2.05187e-09
-1.16392e-09
-2.39958e-09
-2.73167e-09
8.1893e-10
1.72549e-09
2.31069e-09
1.86418e-09
2.91705e-09
6.76483e-10
1.68897e-09
-8.23788e-10
1.03712e-09
-1.74773e-09
-1.69455e-09
4.97193e-10
1.2283e-09
1.15487e-09
1.2065e-09
2.18376e-09
-3.52411e-10
2.16189e-09
-8.01912e-10
1.0544e-09
-6.40249e-10
-6.4015e-10
1.26252e-09
-3.42203e-11
2.53878e-09
-6.97614e-11
2.05617e-09
1.30204e-10
1.34593e-09
-9.16715e-11
3.3744e-10
3.68239e-10
-3.02711e-10
5.01146e-10
-5.35366e-10
3.58777e-10
7.26076e-11
1.08697e-10
3.80284e-10
-5.34004e-10
5.5103e-10
-3.74941e-10
2.09176e-10
-6.77652e-10
-5.61179e-10
2.58137e-11
-1.44686e-09
9.58291e-10
-1.08212e-09
1.55432e-11
-7.33458e-10
2.02367e-10
-2.1303e-10
-3.11252e-10
-8.90681e-10
-3.72621e-10
3.98435e-10
-6.66661e-10
1.25233e-09
-8.97028e-10
2.45911e-10
-7.87645e-10
9.29847e-11
-3.50372e-10
-7.48525e-10
-1.24105e-09
4.26987e-10
-2.85521e-11
1.03889e-09
6.40434e-10
7.81389e-10
5.03407e-10
6.47604e-10
2.2677e-10
2.21004e-11
-1.23022e-10
-1.21895e-09
4.12767e-10
-4.41319e-10
7.44354e-10
3.08847e-10
3.15404e-10
9.32358e-10
4.47762e-10
9.44126e-11
8.626e-11
2.3848e-10
-1.13269e-09
3.12871e-10
-7.54189e-10
1.20323e-09
-5.81508e-10
6.75701e-10
1.45988e-09
-5.28465e-11
8.2296e-10
-2.29246e-10
4.1488e-10
-1.36194e-09
1.86857e-10
-9.41045e-10
7.95813e-10
-1.19046e-09
1.55132e-09
7.04379e-10
8.76341e-10
1.49794e-09
6.77199e-10
6.14022e-10
-6.8474e-10
-8.44135e-11
-8.56632e-10
-9.26305e-10
-3.48571e-10
-7.8417e-10
5.62245e-10
-6.24966e-10
1.33874e-09
-5.90784e-11
4.8135e-11
-7.43818e-10
-3.07252e-10
-5.49379e-10
-1.3314e-09
6.75581e-10
-1.44702e-09
6.77865e-10
-6.52234e-10
5.43946e-10
-2.06207e-10
-3.97892e-10
-9.50025e-10
-6.01267e-10
5.18892e-11
-8.29952e-10
9.04266e-10
-7.1841e-10
5.66323e-10
2.7446e-11
-2.0191e-10
2.56686e-10
-6.27131e-10
-6.93339e-10
-2.81921e-10
3.33811e-10
-3.13278e-10
9.35623e-10
-1.75032e-10
4.28078e-10
-7.35888e-11
-3.03353e-10
-4.94602e-11
-6.51259e-10
-7.42799e-10
-4.30855e-11
3.76896e-10
9.68152e-11
7.95722e-10
2.72467e-10
2.52426e-10
1.79433e-10
-2.10319e-10
7.82551e-11
-5.50081e-10
-6.64544e-10
6.13906e-10
-2.37009e-10
9.06824e-10
5.02804e-10
7.52632e-10
4.06619e-10
3.62621e-10
1.79692e-10
-2.58014e-10
7.05537e-11
-9.22559e-10
5.21264e-10
-7.58274e-10
1.10659e-09
-8.25193e-11
1.15435e-09
3.58856e-10
9.33669e-10
4.00374e-10
3.7739e-10
6.26833e-10
-5.45169e-10
-3.24074e-10
-4.34199e-10
-6.95737e-10
2.89145e-10
-1.34759e-09
1.01071e-09
-8.78386e-10
-6.88305e-11
-6.67338e-11
-1.84819e-10
-6.11903e-10
-2.66947e-10
-1.67253e-10
-1.44983e-10
1.6718e-10
-1.82693e-10
1.04842e-09
-1.98489e-10
-5.30338e-11
3.52975e-10
-7.36283e-10
-2.58928e-10
2.37102e-12
-1.69623e-10
2.87545e-10
-1.17993e-10