/*--------------------------------*- C++ -*----------------------------------*\
| =========                 |                                                 |
| \\      /  F ield         | OpenFOAM: The Open Source CFD Toolbox           |
|  \\    /   O peration     | Version:  2206                                  |
|   \\  /    A nd           | Website:  www.openfoam.com                      |
|    \\/     M anipulation  |                                                 |
\*---------------------------------------------------------------------------*/
FoamFile
{
    version     2.0;
    format      ascii;
    arch        "LSB;label=32;scalar=64";
    class       volVectorField;
    location    "10";
    object      U;
}
// * * * * * * * * * * * * * * * * * * * * * * * * * * * * * * * * * * * * * //

dimensions      [0 1 -1 0 0 0 0];

internalField   nonuniform List<vector> 
50000
(
(-1.51634e-10 7.13707e-07 -5.83359e-11)
(2.15985e-10 1.81968e-06 4.08502e-11)
(7.60361e-11 2.97564e-06 -2.77752e-11)
(1.17694e-11 4.14519e-06 9.41072e-12)
(3.5294e-11 5.31886e-06 -1.19649e-11)
(4.92456e-12 6.49436e-06 6.28279e-12)
(1.43176e-11 7.67083e-06 -5.2048e-12)
(-4.06682e-12 8.8479e-06 3.6804e-12)
(3.11469e-12 1.00253e-05 -2.8143e-12)
(-6.85147e-12 1.1203e-05 2.41812e-12)
(-2.71865e-12 1.23809e-05 -1.75147e-12)
(-9.00117e-12 1.3559e-05 1.69067e-12)
(-6.50848e-12 1.47371e-05 -1.1853e-12)
(-1.09421e-11 1.59153e-05 1.23849e-12)
(-9.46784e-12 1.70936e-05 -8.40114e-13)
(-1.28046e-11 1.82719e-05 9.40528e-13)
(-1.1994e-11 1.94503e-05 -6.13091e-13)
(-1.4597e-11 2.06287e-05 7.33974e-13)
(-1.4225e-11 2.18071e-05 -4.58684e-13)
(-1.6315e-11 2.29856e-05 5.85927e-13)
(-1.62402e-11 2.41641e-05 -3.50925e-13)
(-1.79696e-11 2.53426e-05 4.77352e-13)
(-1.81015e-11 2.65211e-05 -2.73648e-13)
(-1.95778e-11 2.76996e-05 3.96169e-13)
(-1.98571e-11 2.88782e-05 -2.16705e-13)
(-2.11549e-11 3.00567e-05 3.34354e-13)
(-2.15416e-11 3.12353e-05 -1.73675e-13)
(-2.27124e-11 3.24138e-05 2.86467e-13)
(-2.31787e-11 3.35924e-05 -1.4043e-13)
(-2.4258e-11 3.4771e-05 2.48773e-13)
(-2.47844e-11 3.59496e-05 -1.14249e-13)
(-2.57965e-11 3.71282e-05 2.18668e-13)
(-2.6369e-11 3.83068e-05 -9.32898e-14)
(-2.73313e-11 3.94854e-05 1.94309e-13)
(-2.79397e-11 4.0664e-05 -7.62719e-14)
(-2.88643e-11 4.18426e-05 1.74372e-13)
(-2.95012e-11 4.30212e-05 -6.22834e-14)
(-3.0397e-11 4.41999e-05 1.57885e-13)
(-3.10566e-11 4.53785e-05 -5.06595e-14)
(-3.19303e-11 4.65571e-05 1.44122e-13)
(-3.26082e-11 4.77357e-05 -4.09047e-14)
(-3.34646e-11 4.89144e-05 1.32535e-13)
(-3.41575e-11 5.0093e-05 -3.26436e-14)
(-3.50003e-11 5.12716e-05 1.22704e-13)
(-3.57056e-11 5.24503e-05 -2.5588e-14)
(-3.65377e-11 5.36289e-05 1.14302e-13)
(-3.72533e-11 5.48076e-05 -1.95143e-14)
(-3.80769e-11 5.59862e-05 1.07071e-13)
(-3.88011e-11 5.71649e-05 -1.42469e-14)
(-3.96179e-11 5.83435e-05 1.00807e-13)
(-4.03494e-11 5.95221e-05 -9.64682e-15)
(-4.11607e-11 6.07008e-05 9.53495e-14)
(-4.18984e-11 6.18794e-05 -5.60365e-15)
(-4.27053e-11 6.30581e-05 9.05667e-14)
(-4.34484e-11 6.42367e-05 -2.02903e-15)
(-4.42517e-11 6.54154e-05 8.63533e-14)
(-4.49993e-11 6.6594e-05 1.14857e-15)
(-4.57998e-11 6.77727e-05 8.26229e-14)
(-4.65514e-11 6.89514e-05 3.98739e-15)
(-4.73496e-11 7.013e-05 7.93046e-14)
(-4.81046e-11 7.13087e-05 6.53492e-15)
(-4.89008e-11 7.24873e-05 7.63405e-14)
(-4.96589e-11 7.3666e-05 8.83024e-15)
(-5.04536e-11 7.48446e-05 7.36821e-14)
(-5.12143e-11 7.60233e-05 1.09059e-14)
(-5.20077e-11 7.7202e-05 7.12888e-14)
(-5.27707e-11 7.83806e-05 1.27893e-14)
(-5.35631e-11 7.95593e-05 6.91269e-14)
(-5.43282e-11 8.07379e-05 1.45034e-14)
(-5.51198e-11 8.19166e-05 6.71679e-14)
(-5.58868e-11 8.30953e-05 1.60675e-14)
(-5.66776e-11 8.42739e-05 6.53874e-14)
(-5.74462e-11 8.54526e-05 1.74984e-14)
(-5.82364e-11 8.66312e-05 6.37646e-14)
(-5.90066e-11 8.78099e-05 1.88106e-14)
(-5.97963e-11 8.89886e-05 6.22816e-14)
(-6.05678e-11 9.01672e-05 2.00167e-14)
(-6.13571e-11 9.13459e-05 6.09233e-14)
(-6.21298e-11 9.25246e-05 2.11275e-14)
(-6.29188e-11 9.37032e-05 5.96761e-14)
(-6.36926e-11 9.48819e-05 2.21525e-14)
(-6.44813e-11 9.60606e-05 5.85284e-14)
(-6.52561e-11 9.72392e-05 2.31003e-14)
(-6.60445e-11 9.84179e-05 5.747e-14)
(-6.68203e-11 9.95966e-05 2.39782e-14)
(-6.76085e-11 0.000100775 5.64922e-14)
(-6.83851e-11 0.000101954 2.47928e-14)
(-6.91731e-11 0.000103133 5.55871e-14)
(-6.99504e-11 0.000104311 2.55499e-14)
(-7.07384e-11 0.00010549 5.47476e-14)
(-7.15164e-11 0.000106669 2.62548e-14)
(-7.23042e-11 0.000107847 5.39677e-14)
(-7.30828e-11 0.000109026 2.69122e-14)
(-7.38705e-11 0.000110205 5.32419e-14)
(-7.46497e-11 0.000111383 2.75261e-14)
(-7.54374e-11 0.000112562 5.25654e-14)
(-7.62171e-11 0.000113741 2.81004e-14)
(-7.70047e-11 0.000114919 5.19337e-14)
(-7.77849e-11 0.000116098 2.86384e-14)
(-7.85725e-11 0.000117277 5.13431e-14)
(-7.93531e-11 0.000118455 2.9143e-14)
(-8.01406e-11 0.000119634 5.079e-14)
(-8.09217e-11 0.000120813 2.9617e-14)
(-8.17092e-11 0.000121991 5.02714e-14)
(-8.24907e-11 0.00012317 3.00628e-14)
(-8.32781e-11 0.000124349 4.97844e-14)
(-8.40599e-11 0.000125527 3.04827e-14)
(-8.48473e-11 0.000126706 4.93265e-14)
(-8.56295e-11 0.000127885 3.08785e-14)
(-8.64169e-11 0.000129063 4.88955e-14)
(-8.71993e-11 0.000130242 3.12521e-14)
(-8.79867e-11 0.000131421 4.84892e-14)
(-8.87695e-11 0.000132599 3.16052e-14)
(-8.95568e-11 0.000133778 4.81059e-14)
(-9.03399e-11 0.000134957 3.19392e-14)
(-9.11272e-11 0.000136135 4.77437e-14)
(-9.19105e-11 0.000137314 3.22554e-14)
(-9.26979e-11 0.000138493 4.74012e-14)
(-9.34814e-11 0.000139671 3.25552e-14)
(-9.42687e-11 0.00014085 4.70771e-14)
(-9.50524e-11 0.000142029 3.28395e-14)
(-9.58398e-11 0.000143207 4.67699e-14)
(-9.66237e-11 0.000144386 3.31094e-14)
(-9.74111e-11 0.000145565 4.64786e-14)
(-9.81952e-11 0.000146743 3.33659e-14)
(-9.89826e-11 0.000147922 4.62021e-14)
(-9.97669e-11 0.000149101 3.36099e-14)
(-1.00554e-10 0.000150279 4.59394e-14)
(-1.01339e-10 0.000151458 3.3842e-14)
(-1.02126e-10 0.000152637 4.56897e-14)
(-1.02911e-10 0.000153815 3.40632e-14)
(-1.03698e-10 0.000154994 4.5452e-14)
(-1.04483e-10 0.000156173 3.42739e-14)
(-1.0527e-10 0.000157351 4.52257e-14)
(-1.06055e-10 0.00015853 3.44749e-14)
(-1.06843e-10 0.000159709 4.501e-14)
(-1.07628e-10 0.000160887 3.46667e-14)
(-1.08415e-10 0.000162066 4.48043e-14)
(-1.092e-10 0.000163245 3.48498e-14)
(-1.09988e-10 0.000164423 4.46081e-14)
(-1.10773e-10 0.000165602 3.50247e-14)
(-1.1156e-10 0.000166781 4.44207e-14)
(-1.12346e-10 0.000167959 3.5192e-14)
(-1.13133e-10 0.000169138 4.42416e-14)
(-1.13919e-10 0.000170317 3.53519e-14)
(-1.14706e-10 0.000171495 4.40704e-14)
(-1.15492e-10 0.000172674 3.5505e-14)
(-1.16279e-10 0.000173853 4.39067e-14)
(-1.17065e-10 0.000175032 3.56516e-14)
(-1.17852e-10 0.00017621 4.37499e-14)
(-1.18638e-10 0.000177389 3.5792e-14)
(-1.19426e-10 0.000178568 4.35998e-14)
(-1.20211e-10 0.000179746 3.59266e-14)
(-1.20999e-10 0.000180925 4.3456e-14)
(-1.21785e-10 0.000182104 3.60556e-14)
(-1.22572e-10 0.000183282 4.33181e-14)
(-1.23358e-10 0.000184461 3.61794e-14)
(-1.24146e-10 0.00018564 4.31858e-14)
(-1.24932e-10 0.000186818 3.62982e-14)
(-1.25719e-10 0.000187997 4.30589e-14)
(-1.26506e-10 0.000189176 3.64123e-14)
(-1.27293e-10 0.000190354 4.29371e-14)
(-1.28079e-10 0.000191533 3.65219e-14)
(-1.28867e-10 0.000192712 4.282e-14)
(-1.29653e-10 0.00019389 3.66272e-14)
(-1.30441e-10 0.000195069 4.27076e-14)
(-1.31227e-10 0.000196248 3.67285e-14)
(-1.32015e-10 0.000197426 4.25994e-14)
(-1.32801e-10 0.000198605 3.68259e-14)
(-1.33589e-10 0.000199784 4.24954e-14)
(-1.34375e-10 0.000200962 3.69196e-14)
(-1.35163e-10 0.000202141 4.23953e-14)
(-1.35949e-10 0.00020332 3.70098e-14)
(-1.36737e-10 0.000204498 4.22989e-14)
(-1.37523e-10 0.000205677 3.70968e-14)
(-1.38311e-10 0.000206856 4.22061e-14)
(-1.39097e-10 0.000208034 3.71805e-14)
(-1.39885e-10 0.000209213 4.21167e-14)
(-1.40672e-10 0.000210392 3.72612e-14)
(-1.41459e-10 0.00021157 4.20304e-14)
(-1.42246e-10 0.000212749 3.7339e-14)
(-1.43034e-10 0.000213928 4.19473e-14)
(-1.4382e-10 0.000215106 3.74141e-14)
(-1.44608e-10 0.000216285 4.18671e-14)
(-1.45395e-10 0.000217464 3.74865e-14)
(-1.46182e-10 0.000218642 4.17897e-14)
(-1.46969e-10 0.000219821 3.75564e-14)
(-1.47757e-10 0.000221 4.1715e-14)
(-1.48544e-10 0.000222179 3.7624e-14)
(-1.49331e-10 0.000223357 4.16428e-14)
(-1.50118e-10 0.000224536 3.76892e-14)
(-1.50906e-10 0.000225715 4.1573e-14)
(-1.51693e-10 0.000226893 3.77523e-14)
(-1.5248e-10 0.000228072 4.15056e-14)
(-1.53267e-10 0.000229251 3.78132e-14)
(-1.54055e-10 0.000230429 4.14405e-14)
(-1.54842e-10 0.000231608 3.78722e-14)
(-1.5563e-10 0.000232787 4.13774e-14)
(-1.56417e-10 0.000233965 3.79293e-14)
(-1.57204e-10 0.000235144 4.13164e-14)
(-1.57991e-10 0.000236323 3.79845e-14)
(-1.58779e-10 0.000237501 4.12574e-14)
(-1.59566e-10 0.00023868 3.80379e-14)
(-1.60354e-10 0.000239859 4.12002e-14)
(-1.61141e-10 0.000241037 3.80897e-14)
(-1.61928e-10 0.000242216 4.11448e-14)
(-1.62715e-10 0.000243395 3.81399e-14)
(-1.63503e-10 0.000244573 4.10912e-14)
(-1.6429e-10 0.000245752 3.81885e-14)
(-1.65078e-10 0.000246931 4.10391e-14)
(-1.65865e-10 0.000248109 3.82357e-14)
(-1.66653e-10 0.000249288 4.09887e-14)
(-1.6744e-10 0.000250467 3.82814e-14)
(-1.68228e-10 0.000251645 4.09398e-14)
(-1.69015e-10 0.000252824 3.83257e-14)
(-1.69803e-10 0.000254003 4.08923e-14)
(-1.7059e-10 0.000255181 3.83688e-14)
(-1.71378e-10 0.00025636 4.08462e-14)
(-1.72165e-10 0.000257539 3.84105e-14)
(-1.72953e-10 0.000258717 4.08015e-14)
(-1.7374e-10 0.000259896 3.84511e-14)
(-1.74528e-10 0.000261075 4.0758e-14)
(-1.75315e-10 0.000262253 3.84905e-14)
(-1.76103e-10 0.000263432 4.07158e-14)
(-1.7689e-10 0.000264611 3.85287e-14)
(-1.77678e-10 0.00026579 4.06748e-14)
(-1.78465e-10 0.000266968 3.85659e-14)
(-1.79253e-10 0.000268147 4.0635e-14)
(-1.8004e-10 0.000269326 3.86021e-14)
(-1.80828e-10 0.000270504 4.05962e-14)
(-1.81615e-10 0.000271683 3.86372e-14)
(-1.82403e-10 0.000272862 4.05585e-14)
(-1.8319e-10 0.00027404 3.86714e-14)
(-1.83978e-10 0.000275219 4.05219e-14)
(-1.84765e-10 0.000276398 3.87047e-14)
(-1.85553e-10 0.000277576 4.04862e-14)
(-1.8634e-10 0.000278755 3.8737e-14)
(-1.87128e-10 0.000279934 4.04515e-14)
(-1.87915e-10 0.000281112 3.87685e-14)
(-1.88703e-10 0.000282291 4.04177e-14)
(-1.89491e-10 0.00028347 3.87992e-14)
(-1.90278e-10 0.000284648 4.03847e-14)
(-1.91066e-10 0.000285827 3.88291e-14)
(-1.91854e-10 0.000287006 4.03527e-14)
(-1.92641e-10 0.000288184 3.88581e-14)
(-1.93429e-10 0.000289363 4.03214e-14)
(-1.94216e-10 0.000290542 3.88865e-14)
(-1.95004e-10 0.00029172 4.0291e-14)
(-1.95791e-10 0.000292899 3.89141e-14)
(-1.96579e-10 0.000294078 4.02613e-14)
(-1.97367e-10 0.000295256 3.8941e-14)
(-1.98155e-10 0.000296435 4.02324e-14)
(-1.98942e-10 0.000297614 3.89672e-14)
(-1.9973e-10 0.000298792 4.02042e-14)
(-2.00517e-10 0.000299971 3.89928e-14)
(-2.01305e-10 0.00030115 4.01767e-14)
(-2.02093e-10 0.000302328 3.90177e-14)
(-2.0288e-10 0.000303507 4.01499e-14)
(-2.03668e-10 0.000304686 3.9042e-14)
(-2.04456e-10 0.000305864 4.01237e-14)
(-2.05243e-10 0.000307043 3.90658e-14)
(-2.06031e-10 0.000308222 4.00982e-14)
(-2.06818e-10 0.000309401 3.90889e-14)
(-2.07606e-10 0.000310579 4.00732e-14)
(-2.08394e-10 0.000311758 3.91116e-14)
(-2.09182e-10 0.000312937 4.00489e-14)
(-2.09969e-10 0.000314115 3.91337e-14)
(-2.10757e-10 0.000315294 4.00251e-14)
(-2.11544e-10 0.000316473 3.91552e-14)
(-2.12332e-10 0.000317651 4.00019e-14)
(-2.1312e-10 0.00031883 3.91763e-14)
(-2.13908e-10 0.000320009 3.99792e-14)
(-2.14695e-10 0.000321187 3.91969e-14)
(-2.15483e-10 0.000322366 3.9957e-14)
(-2.16271e-10 0.000323545 3.9217e-14)
(-2.17058e-10 0.000324723 3.99353e-14)
(-2.17846e-10 0.000325902 3.92367e-14)
(-2.18634e-10 0.000327081 3.99141e-14)
(-2.19421e-10 0.000328259 3.92559e-14)
(-2.20209e-10 0.000329438 3.98934e-14)
(-2.20997e-10 0.000330617 3.92747e-14)
(-2.21785e-10 0.000331795 3.98731e-14)
(-2.22572e-10 0.000332974 3.92931e-14)
(-2.2336e-10 0.000334153 3.98532e-14)
(-2.24148e-10 0.000335331 3.9311e-14)
(-2.24936e-10 0.00033651 3.98338e-14)
(-2.25723e-10 0.000337689 3.93286e-14)
(-2.26511e-10 0.000338867 3.98148e-14)
(-2.27299e-10 0.000340046 3.93458e-14)
(-2.28086e-10 0.000341225 3.97963e-14)
(-2.28874e-10 0.000342403 3.93626e-14)
(-2.29662e-10 0.000343582 3.97781e-14)
(-2.30449e-10 0.000344761 3.93791e-14)
(-2.31237e-10 0.000345939 3.97603e-14)
(-2.32025e-10 0.000347118 3.93952e-14)
(-2.32813e-10 0.000348297 3.97428e-14)
(-2.336e-10 0.000349476 3.9411e-14)
(-2.34388e-10 0.000350654 3.97258e-14)
(-2.35176e-10 0.000351833 3.94264e-14)
(-2.35964e-10 0.000353012 3.9709e-14)
(-2.36751e-10 0.00035419 3.94415e-14)
(-2.37539e-10 0.000355369 3.96926e-14)
(-2.38327e-10 0.000356548 3.94564e-14)
(-2.39115e-10 0.000357726 3.96766e-14)
(-2.39902e-10 0.000358905 3.94709e-14)
(-2.4069e-10 0.000360084 3.96608e-14)
(-2.41478e-10 0.000361262 3.94851e-14)
(-2.42266e-10 0.000362441 3.96454e-14)
(-2.43053e-10 0.00036362 3.9499e-14)
(-2.43841e-10 0.000364798 3.96302e-14)
(-2.44629e-10 0.000365977 3.95127e-14)
(-2.45417e-10 0.000367156 3.96154e-14)
(-2.46205e-10 0.000368334 3.95261e-14)
(-2.46992e-10 0.000369513 3.96009e-14)
(-2.4778e-10 0.000370692 3.95392e-14)
(-2.48568e-10 0.00037187 3.95866e-14)
(-2.49356e-10 0.000373049 3.95521e-14)
(-2.50144e-10 0.000374228 3.95726e-14)
(-2.50931e-10 0.000375406 3.95647e-14)
(-2.51719e-10 0.000376585 3.95589e-14)
(-2.52507e-10 0.000377764 3.9577e-14)
(-2.53295e-10 0.000378942 3.95454e-14)
(-2.54082e-10 0.000380121 3.95892e-14)
(-2.5487e-10 0.0003813 3.95322e-14)
(-2.55658e-10 0.000382478 3.96011e-14)
(-2.56446e-10 0.000383657 3.95192e-14)
(-2.57233e-10 0.000384836 3.96128e-14)
(-2.58021e-10 0.000386015 3.95065e-14)
(-2.58809e-10 0.000387193 3.96243e-14)
(-2.59597e-10 0.000388372 3.9494e-14)
(-2.60385e-10 0.000389551 3.96355e-14)
(-2.61172e-10 0.000390729 3.94817e-14)
(-2.6196e-10 0.000391908 3.96466e-14)
(-2.62748e-10 0.000393087 3.94697e-14)
(-2.63536e-10 0.000394265 3.96575e-14)
(-2.64324e-10 0.000395444 3.94578e-14)
(-2.65111e-10 0.000396623 3.96681e-14)
(-2.65899e-10 0.000397801 3.94462e-14)
(-2.66687e-10 0.00039898 3.96786e-14)
(-2.67475e-10 0.000400159 3.94347e-14)
(-2.68263e-10 0.000401337 3.96889e-14)
(-2.6905e-10 0.000402516 3.94235e-14)
(-2.69838e-10 0.000403695 3.9699e-14)
(-2.70626e-10 0.000404873 3.94124e-14)
(-2.71414e-10 0.000406052 3.9709e-14)
(-2.72202e-10 0.000407231 3.94016e-14)
(-2.72989e-10 0.000408409 3.97188e-14)
(-2.73777e-10 0.000409588 3.93909e-14)
(-2.74565e-10 0.000410767 3.97284e-14)
(-2.75353e-10 0.000411945 3.93804e-14)
(-2.76141e-10 0.000413124 3.97378e-14)
(-2.76929e-10 0.000414303 3.937e-14)
(-2.77716e-10 0.000415481 3.97471e-14)
(-2.78504e-10 0.00041666 3.93599e-14)
(-2.79292e-10 0.000417839 3.97562e-14)
(-2.8008e-10 0.000419017 3.93499e-14)
(-2.80868e-10 0.000420196 3.97652e-14)
(-2.81655e-10 0.000421375 3.934e-14)
(-2.82443e-10 0.000422553 3.9774e-14)
(-2.83231e-10 0.000423732 3.93304e-14)
(-2.84019e-10 0.000424911 3.97827e-14)
(-2.84807e-10 0.00042609 3.93208e-14)
(-2.85595e-10 0.000427268 3.97913e-14)
(-2.86382e-10 0.000428447 3.93114e-14)
(-2.8717e-10 0.000429626 3.97997e-14)
(-2.87958e-10 0.000430804 3.93022e-14)
(-2.88746e-10 0.000431983 3.9808e-14)
(-2.89534e-10 0.000433162 3.92931e-14)
(-2.90322e-10 0.00043434 3.98161e-14)
(-2.91109e-10 0.000435519 3.92841e-14)
(-2.91897e-10 0.000436698 3.98241e-14)
(-2.92685e-10 0.000437876 3.92753e-14)
(-2.93473e-10 0.000439055 3.9832e-14)
(-2.94261e-10 0.000440234 3.92666e-14)
(-2.95049e-10 0.000441412 3.98398e-14)
(-2.95836e-10 0.000442591 3.92581e-14)
(-2.96624e-10 0.00044377 3.98475e-14)
(-2.97412e-10 0.000444948 3.92496e-14)
(-2.982e-10 0.000446127 3.9855e-14)
(-2.98988e-10 0.000447306 3.92413e-14)
(-2.99776e-10 0.000448484 3.98625e-14)
(-3.00563e-10 0.000449663 3.92332e-14)
(-3.01351e-10 0.000450842 3.98698e-14)
(-3.02139e-10 0.00045202 3.92251e-14)
(-3.02927e-10 0.000453199 3.9877e-14)
(-3.03715e-10 0.000454378 3.92172e-14)
(-3.04503e-10 0.000455556 3.98841e-14)
(-3.0529e-10 0.000456735 3.92093e-14)
(-3.06078e-10 0.000457914 3.98912e-14)
(-3.06866e-10 0.000459092 3.92016e-14)
(-3.07654e-10 0.000460271 3.98981e-14)
(-3.08442e-10 0.00046145 3.9194e-14)
(-3.0923e-10 0.000462629 3.99049e-14)
(-3.10018e-10 0.000463807 3.91865e-14)
(-3.10805e-10 0.000464986 3.99117e-14)
(-3.11593e-10 0.000466165 3.91791e-14)
(-3.12381e-10 0.000467343 3.99183e-14)
(-3.13169e-10 0.000468522 3.91718e-14)
(-3.13957e-10 0.000469701 3.99249e-14)
(-3.14745e-10 0.000470879 3.91646e-14)
(-3.15532e-10 0.000472058 3.99314e-14)
(-3.1632e-10 0.000473237 3.91575e-14)
(-3.17108e-10 0.000474415 3.99378e-14)
(-3.17896e-10 0.000475594 3.91504e-14)
(-3.18684e-10 0.000476773 3.99441e-14)
(-3.19472e-10 0.000477951 3.91435e-14)
(-3.2026e-10 0.00047913 3.99503e-14)
(-3.21048e-10 0.000480309 3.91366e-14)
(-3.21835e-10 0.000481487 3.99565e-14)
(-3.22623e-10 0.000482666 3.91298e-14)
(-3.23411e-10 0.000483845 3.99626e-14)
(-3.24199e-10 0.000485023 3.91232e-14)
(-3.24987e-10 0.000486202 3.99686e-14)
(-3.25775e-10 0.000487381 3.91165e-14)
(-3.26562e-10 0.000488559 3.99745e-14)
(-3.2735e-10 0.000489738 3.911e-14)
(-3.28138e-10 0.000490917 3.99804e-14)
(-3.28926e-10 0.000492095 3.91036e-14)
(-3.29714e-10 0.000493274 3.99862e-14)
(-3.30502e-10 0.000494453 3.90972e-14)
(-3.3129e-10 0.000495631 3.99919e-14)
(-3.32078e-10 0.00049681 3.90909e-14)
(-3.32865e-10 0.000497989 3.99976e-14)
(-3.33653e-10 0.000499167 3.90847e-14)
(-3.34441e-10 0.000500346 4.00032e-14)
(-3.35229e-10 0.000501525 3.90786e-14)
(-3.36017e-10 0.000502704 4.00087e-14)
(-3.36805e-10 0.000503882 3.90725e-14)
(-3.37593e-10 0.000505061 4.00142e-14)
(-3.3838e-10 0.00050624 3.90664e-14)
(-3.39168e-10 0.000507418 4.00196e-14)
(-3.39956e-10 0.000508597 3.90605e-14)
(-3.40744e-10 0.000509776 4.0025e-14)
(-3.41532e-10 0.000510954 3.90546e-14)
(-3.4232e-10 0.000512133 4.00303e-14)
(-3.43108e-10 0.000513312 3.90488e-14)
(-3.43896e-10 0.00051449 4.00355e-14)
(-3.44683e-10 0.000515669 3.9043e-14)
(-3.45471e-10 0.000516848 4.00407e-14)
(-3.46259e-10 0.000518026 3.90373e-14)
(-3.47047e-10 0.000519205 4.00458e-14)
(-3.47835e-10 0.000520384 3.90317e-14)
(-3.48623e-10 0.000521562 4.00509e-14)
(-3.49411e-10 0.000522741 3.90261e-14)
(-3.50198e-10 0.00052392 4.00559e-14)
(-3.50986e-10 0.000525098 3.90206e-14)
(-3.51774e-10 0.000526277 4.00609e-14)
(-3.52562e-10 0.000527456 3.90151e-14)
(-3.5335e-10 0.000528634 4.00658e-14)
(-3.54138e-10 0.000529813 3.90097e-14)
(-3.54926e-10 0.000530992 4.00706e-14)
(-3.55714e-10 0.00053217 3.90044e-14)
(-3.56501e-10 0.000533349 4.00755e-14)
(-3.57289e-10 0.000534528 3.89991e-14)
(-3.58077e-10 0.000535706 4.00802e-14)
(-3.58865e-10 0.000536885 3.89938e-14)
(-3.59653e-10 0.000538064 4.0085e-14)
(-3.60441e-10 0.000539243 3.89887e-14)
(-3.61229e-10 0.000540421 4.00897e-14)
(-3.62017e-10 0.0005416 3.89835e-14)
(-3.62805e-10 0.000542779 4.00943e-14)
(-3.63592e-10 0.000543957 3.89784e-14)
(-3.6438e-10 0.000545136 4.00989e-14)
(-3.65168e-10 0.000546315 3.89734e-14)
(-3.65956e-10 0.000547493 4.01035e-14)
(-3.66744e-10 0.000548672 3.89683e-14)
(-3.67532e-10 0.000549851 4.0108e-14)
(-3.6832e-10 0.000551029 3.89634e-14)
(-3.69108e-10 0.000552208 4.01125e-14)
(-3.69896e-10 0.000553387 3.89585e-14)
(-3.70683e-10 0.000554565 4.01169e-14)
(-3.71471e-10 0.000555744 3.89536e-14)
(-3.72259e-10 0.000556923 4.01214e-14)
(-3.73047e-10 0.000558101 3.89487e-14)
(-3.73835e-10 0.00055928 4.01257e-14)
(-3.74623e-10 0.000560459 3.8944e-14)
(-3.75411e-10 0.000561637 4.01301e-14)
(-3.76199e-10 0.000562816 3.89392e-14)
(-3.76986e-10 0.000563995 4.01343e-14)
(-3.77774e-10 0.000565173 3.89345e-14)
(-3.78562e-10 0.000566352 4.01386e-14)
(-3.7935e-10 0.000567531 3.89298e-14)
(-3.80138e-10 0.000568709 4.01428e-14)
(-3.80926e-10 0.000569888 3.89252e-14)
(-3.81714e-10 0.000571067 4.0147e-14)
(-3.82502e-10 0.000572245 3.89206e-14)
(-3.8329e-10 0.000573424 4.01512e-14)
(-3.84077e-10 0.000574603 3.8916e-14)
(-3.84865e-10 0.000575782 4.01553e-14)
(-3.85653e-10 0.00057696 3.89115e-14)
(-3.86441e-10 0.000578139 4.01594e-14)
(-3.87229e-10 0.000579318 3.8907e-14)
(-3.88017e-10 0.000580496 4.01635e-14)
(-3.88805e-10 0.000581675 3.89026e-14)
(-3.89593e-10 0.000582854 4.01675e-14)
(-3.90381e-10 0.000584032 3.88982e-14)
(-3.91168e-10 0.000585211 4.01715e-14)
(-3.91956e-10 0.00058639 3.88938e-14)
(-3.92744e-10 0.000587568 4.01754e-14)
(-3.93532e-10 0.000588747 3.88894e-14)
(-3.9432e-10 0.000589926 4.01794e-14)
(-3.95108e-10 0.000591104 3.88851e-14)
(-3.95896e-10 0.000592283 4.01833e-14)
(-3.96684e-10 0.000593462 3.88808e-14)
(-3.97472e-10 0.00059464 4.01872e-14)
(-3.98259e-10 0.000595819 3.88766e-14)
(-3.99047e-10 0.000596998 4.0191e-14)
(-3.99835e-10 0.000598176 3.88723e-14)
(-4.00623e-10 0.000599355 4.01948e-14)
(-4.01411e-10 0.000600534 3.88682e-14)
(-4.02199e-10 0.000601712 4.01986e-14)
(-4.02987e-10 0.000602891 3.8864e-14)
(-4.03775e-10 0.00060407 4.02024e-14)
(-4.04563e-10 0.000605248 3.88599e-14)
(-4.0535e-10 0.000606427 4.02061e-14)
(-4.06138e-10 0.000607606 3.88558e-14)
(-4.06926e-10 0.000608784 4.02098e-14)
(-4.07714e-10 0.000609963 3.88518e-14)
(-4.08502e-10 0.000611142 4.02135e-14)
(-4.0929e-10 0.000612321 3.88477e-14)
(-4.10078e-10 0.000613499 4.02172e-14)
(-4.10866e-10 0.000614678 3.88437e-14)
(-4.11654e-10 0.000615857 4.02209e-14)
(-4.12442e-10 0.000617035 3.88397e-14)
(-4.13229e-10 0.000618214 4.02245e-14)
(-4.14017e-10 0.000619393 3.88358e-14)
(-4.14805e-10 0.000620571 4.02281e-14)
(-4.15593e-10 0.00062175 3.88318e-14)
(-4.16381e-10 0.000622929 4.02317e-14)
(-4.17169e-10 0.000624107 3.88279e-14)
(-4.17957e-10 0.000625286 4.02353e-14)
(-4.18745e-10 0.000626465 3.88241e-14)
(-4.19533e-10 0.000627643 4.02389e-14)
(-4.20321e-10 0.000628822 3.88202e-14)
(-4.21108e-10 0.000630001 4.02424e-14)
(-4.21896e-10 0.000631179 3.88164e-14)
(-4.22684e-10 0.000632358 4.02459e-14)
(-4.23472e-10 0.000633537 3.88125e-14)
(-4.2426e-10 0.000634715 4.02494e-14)
(-4.25048e-10 0.000635894 3.88087e-14)
(-4.25836e-10 0.000637073 4.02529e-14)
(-4.26624e-10 0.000638251 3.88049e-14)
(-4.27412e-10 0.00063943 4.02564e-14)
(-4.282e-10 0.000640609 3.88012e-14)
(-4.28987e-10 0.000641787 4.02598e-14)
(-4.29775e-10 0.000642966 3.87975e-14)
(-4.30563e-10 0.000644145 4.02632e-14)
(-4.31351e-10 0.000645323 3.87938e-14)
(-4.32139e-10 0.000646502 4.02666e-14)
(-4.32927e-10 0.000647681 3.87901e-14)
(-4.33715e-10 0.00064886 4.027e-14)
(-4.34503e-10 0.000650038 3.87864e-14)
(-4.35291e-10 0.000651217 4.02734e-14)
(-4.36079e-10 0.000652396 3.87828e-14)
(-4.36866e-10 0.000653574 4.02767e-14)
(-4.37654e-10 0.000654753 3.87791e-14)
(-4.38442e-10 0.000655932 4.02801e-14)
(-4.3923e-10 0.00065711 3.87755e-14)
(-4.40018e-10 0.000658289 4.02834e-14)
(-4.40806e-10 0.000659468 3.87719e-14)
(-4.41594e-10 0.000660646 4.02867e-14)
(-4.42382e-10 0.000661825 3.87683e-14)
(-4.4317e-10 0.000663004 4.029e-14)
(-4.43958e-10 0.000664182 3.87647e-14)
(-4.44745e-10 0.000665361 4.02933e-14)
(-4.45533e-10 0.00066654 3.87612e-14)
(-4.46321e-10 0.000667718 4.02965e-14)
(-4.47109e-10 0.000668897 3.87577e-14)
(-4.47897e-10 0.000670076 4.02998e-14)
(-4.48685e-10 0.000671254 3.87541e-14)
(-4.49473e-10 0.000672433 4.0303e-14)
(-4.50261e-10 0.000673612 3.87506e-14)
(-4.51049e-10 0.00067479 4.03062e-14)
(-4.51837e-10 0.000675969 3.87472e-14)
(-4.52624e-10 0.000677148 4.03094e-14)
(-4.53412e-10 0.000678326 3.87437e-14)
(-4.542e-10 0.000679505 4.03126e-14)
(-4.54988e-10 0.000680684 3.87403e-14)
(-4.55776e-10 0.000681862 4.03157e-14)
(-4.56564e-10 0.000683041 3.87369e-14)
(-4.57352e-10 0.00068422 4.03189e-14)
(-4.5814e-10 0.000685399 3.87335e-14)
(-4.58928e-10 0.000686577 4.0322e-14)
(-4.59716e-10 0.000687756 3.87301e-14)
(-4.60504e-10 0.000688935 4.03252e-14)
(-4.61291e-10 0.000690113 3.87267e-14)
(-4.62079e-10 0.000691292 4.03283e-14)
(-4.62867e-10 0.000692471 3.87234e-14)
(-4.63655e-10 0.000693649 4.03314e-14)
(-4.64443e-10 0.000694828 3.872e-14)
(-4.65231e-10 0.000696007 4.03345e-14)
(-4.66019e-10 0.000697185 3.87167e-14)
(-4.66807e-10 0.000698364 4.03376e-14)
(-4.67595e-10 0.000699543 3.87133e-14)
(-4.68383e-10 0.000700721 4.03407e-14)
(-4.69171e-10 0.0007019 3.871e-14)
(-4.69958e-10 0.000703079 4.03437e-14)
(-4.70746e-10 0.000704257 3.87067e-14)
(-4.71534e-10 0.000705436 4.03468e-14)
(-4.72322e-10 0.000706615 3.87035e-14)
(-4.7311e-10 0.000707793 4.03498e-14)
(-4.73898e-10 0.000708972 3.87002e-14)
(-4.74686e-10 0.000710151 4.03529e-14)
(-4.75474e-10 0.000711329 3.86969e-14)
(-4.76262e-10 0.000712508 4.03559e-14)
(-4.7705e-10 0.000713687 3.86937e-14)
(-4.77837e-10 0.000714865 4.03589e-14)
(-4.78625e-10 0.000716044 3.86904e-14)
(-4.79413e-10 0.000717223 4.03619e-14)
(-4.80201e-10 0.000718401 3.86872e-14)
(-4.80989e-10 0.00071958 4.03649e-14)
(-4.81777e-10 0.000720759 3.8684e-14)
(-4.82565e-10 0.000721938 4.03678e-14)
(-4.83353e-10 0.000723116 3.86808e-14)
(-4.84141e-10 0.000724295 4.03708e-14)
(-4.84929e-10 0.000725474 3.86776e-14)
(-4.85717e-10 0.000726652 4.03738e-14)
(-4.86505e-10 0.000727831 3.86745e-14)
(-4.87292e-10 0.00072901 4.03767e-14)
(-4.8808e-10 0.000730188 3.86713e-14)
(-4.88868e-10 0.000731367 4.03797e-14)
(-4.89656e-10 0.000732546 3.86681e-14)
(-4.90444e-10 0.000733724 4.03826e-14)
(-4.91232e-10 0.000734903 3.8665e-14)
(-4.9202e-10 0.000736082 4.03855e-14)
(-4.92808e-10 0.00073726 3.86619e-14)
(-4.93596e-10 0.000738439 4.03884e-14)
(-4.94384e-10 0.000739618 3.86587e-14)
(-4.95171e-10 0.000740796 4.03913e-14)
(-4.95959e-10 0.000741975 3.86556e-14)
(-4.96747e-10 0.000743154 4.03942e-14)
(-4.97535e-10 0.000744332 3.86525e-14)
(-4.98323e-10 0.000745511 4.03971e-14)
(-4.99111e-10 0.00074669 3.86495e-14)
(-4.99899e-10 0.000747868 4.04e-14)
(-5.00687e-10 0.000749047 3.86464e-14)
(-5.01475e-10 0.000750226 4.04028e-14)
(-5.02263e-10 0.000751404 3.86433e-14)
(-5.03051e-10 0.000752583 4.04057e-14)
(-5.03839e-10 0.000753762 3.86403e-14)
(-5.04626e-10 0.00075494 4.04085e-14)
(-5.05414e-10 0.000756119 3.86372e-14)
(-5.06202e-10 0.000757298 4.04113e-14)
(-5.0699e-10 0.000758477 3.86342e-14)
(-5.07778e-10 0.000759655 4.04141e-14)
(-5.08566e-10 0.000760834 3.86312e-14)
(-5.09354e-10 0.000762013 4.0417e-14)
(-5.10142e-10 0.000763191 3.86282e-14)
(-5.1093e-10 0.00076437 4.04198e-14)
(-5.11718e-10 0.000765549 3.86252e-14)
(-5.12506e-10 0.000766727 4.04226e-14)
(-5.13294e-10 0.000767906 3.86222e-14)
(-5.14081e-10 0.000769085 4.04254e-14)
(-5.14869e-10 0.000770263 3.86193e-14)
(-5.15657e-10 0.000771442 4.04282e-14)
(-5.16445e-10 0.000772621 3.86163e-14)
(-5.17233e-10 0.000773799 4.0431e-14)
(-5.18021e-10 0.000774978 3.86133e-14)
(-5.18809e-10 0.000776157 4.04338e-14)
(-5.19597e-10 0.000777335 3.86104e-14)
(-5.20385e-10 0.000778514 4.04366e-14)
(-5.21173e-10 0.000779693 3.86074e-14)
(-5.21961e-10 0.000780871 4.04394e-14)
(-5.22748e-10 0.00078205 3.86045e-14)
(-5.23536e-10 0.000783229 4.04422e-14)
(-5.24324e-10 0.000784407 3.86015e-14)
(-5.25112e-10 0.000785586 4.0445e-14)
(-5.259e-10 0.000786765 3.85986e-14)
(-5.26688e-10 0.000787943 4.04478e-14)
(-5.27476e-10 0.000789122 3.85956e-14)
(-5.28264e-10 0.000790301 4.04505e-14)
(-5.29052e-10 0.000791479 3.85927e-14)
(-5.2984e-10 0.000792658 4.04533e-14)
(-5.30628e-10 0.000793837 3.85898e-14)
(-5.31416e-10 0.000795016 4.0456e-14)
(-5.32203e-10 0.000796194 3.85869e-14)
(-5.32991e-10 0.000797373 4.04588e-14)
(-5.33779e-10 0.000798552 3.8584e-14)
(-5.34567e-10 0.00079973 4.04615e-14)
(-5.35355e-10 0.000800909 3.85811e-14)
(-5.36143e-10 0.000802088 4.04642e-14)
(-5.36931e-10 0.000803266 3.85783e-14)
(-5.37719e-10 0.000804445 4.0467e-14)
(-5.38507e-10 0.000805624 3.85754e-14)
(-5.39295e-10 0.000806802 4.04697e-14)
(-5.40083e-10 0.000807981 3.85725e-14)
(-5.4087e-10 0.00080916 4.04725e-14)
(-5.41658e-10 0.000810338 3.85696e-14)
(-5.42446e-10 0.000811517 4.04752e-14)
(-5.43234e-10 0.000812696 3.85667e-14)
(-5.44022e-10 0.000813874 4.04779e-14)
(-5.4481e-10 0.000815053 3.85639e-14)
(-5.45598e-10 0.000816232 4.04806e-14)
(-5.46386e-10 0.00081741 3.8561e-14)
(-5.47174e-10 0.000818589 4.04833e-14)
(-5.47962e-10 0.000819768 3.85582e-14)
(-5.4875e-10 0.000820946 4.0486e-14)
(-5.49538e-10 0.000822125 3.85553e-14)
(-5.50325e-10 0.000823304 4.04887e-14)
(-5.51113e-10 0.000824482 3.85525e-14)
(-5.51901e-10 0.000825661 4.04914e-14)
(-5.52689e-10 0.00082684 3.85497e-14)
(-5.53477e-10 0.000828018 4.04941e-14)
(-5.54265e-10 0.000829197 3.85468e-14)
(-5.55053e-10 0.000830376 4.04967e-14)
(-5.55841e-10 0.000831555 3.8544e-14)
(-5.56629e-10 0.000832733 4.04994e-14)
(-5.57417e-10 0.000833912 3.85412e-14)
(-5.58205e-10 0.000835091 4.05021e-14)
(-5.58993e-10 0.000836269 3.85384e-14)
(-5.5978e-10 0.000837448 4.05048e-14)
(-5.60568e-10 0.000838627 3.85356e-14)
(-5.61356e-10 0.000839805 4.05074e-14)
(-5.62144e-10 0.000840984 3.85328e-14)
(-5.62932e-10 0.000842163 4.05101e-14)
(-5.6372e-10 0.000843341 3.85301e-14)
(-5.64508e-10 0.00084452 4.05128e-14)
(-5.65296e-10 0.000845699 3.85273e-14)
(-5.66084e-10 0.000846877 4.05154e-14)
(-5.66872e-10 0.000848056 3.85245e-14)
(-5.6766e-10 0.000849235 4.05181e-14)
(-5.68448e-10 0.000850413 3.85217e-14)
(-5.69236e-10 0.000851592 4.05208e-14)
(-5.70023e-10 0.000852771 3.85189e-14)
(-5.70811e-10 0.000853949 4.05234e-14)
(-5.71599e-10 0.000855128 3.85161e-14)
(-5.72387e-10 0.000856307 4.05261e-14)
(-5.73175e-10 0.000857485 3.85134e-14)
(-5.73963e-10 0.000858664 4.05287e-14)
(-5.74751e-10 0.000859843 3.85106e-14)
(-5.75539e-10 0.000861021 4.05314e-14)
(-5.76327e-10 0.0008622 3.85078e-14)
(-5.77115e-10 0.000863379 4.0534e-14)
(-5.77903e-10 0.000864557 3.85051e-14)
(-5.78691e-10 0.000865736 4.05366e-14)
(-5.79478e-10 0.000866915 3.85023e-14)
(-5.80266e-10 0.000868094 4.05393e-14)
(-5.81054e-10 0.000869272 3.84996e-14)
(-5.81842e-10 0.000870451 4.05419e-14)
(-5.8263e-10 0.00087163 3.84968e-14)
(-5.83418e-10 0.000872808 4.05445e-14)
(-5.84206e-10 0.000873987 3.84941e-14)
(-5.84994e-10 0.000875166 4.05471e-14)
(-5.85782e-10 0.000876344 3.84913e-14)
(-5.8657e-10 0.000877523 4.05498e-14)
(-5.87358e-10 0.000878702 3.84886e-14)
(-5.88146e-10 0.00087988 4.05524e-14)
(-5.88934e-10 0.000881059 3.84859e-14)
(-5.89721e-10 0.000882238 4.0555e-14)
(-5.90509e-10 0.000883416 3.84831e-14)
(-5.91297e-10 0.000884595 4.05576e-14)
(-5.92085e-10 0.000885774 3.84804e-14)