/*--------------------------------*- C++ -*----------------------------------*\
| =========                 |                                                 |
| \\      /  F ield         | OpenFOAM: The Open Source CFD Toolbox           |
|  \\    /   O peration     | Version:  2206                                  |
|   \\  /    A nd           | Website:  www.openfoam.com                      |
|    \\/     M anipulation  |                                                 |
\*---------------------------------------------------------------------------*/
FoamFile
{
    version     2.0;
    format      ascii;
    arch        "LSB;label=32;scalar=64";
    class       volVectorField;
    location    "510";
    object      U;
}
// * * * * * * * * * * * * * * * * * * * * * * * * * * * * * * * * * * * * * //

dimensions      [0 1 -1 0 0 0 0];

internalField   nonuniform List<vector> 
100000
(
(-4.54087e-12 6.47689e-06 9.31557e-13)
(-4.05253e-12 1.20915e-05 9.03911e-14)
(-7.64572e-12 2.20411e-05 1.47236e-13)
(-1.43086e-11 3.2725e-05 1.50586e-13)
(-1.77843e-11 4.2411e-05 8.8538e-14)
(-1.67664e-11 4.49026e-05 7.58811e-14)
(-2.05334e-11 5.4811e-05 1.41935e-13)
(-2.62514e-11 6.56369e-05 1.47846e-13)
(-3.12292e-11 7.64443e-05 1.49704e-13)
(-3.58157e-11 8.62167e-05 8.43151e-14)
(-3.39181e-11 8.86426e-05 7.83866e-14)
(-3.83484e-11 9.85245e-05 1.43148e-13)
(-4.35845e-11 0.000109354 1.48734e-13)
(-4.88153e-11 0.000120171 1.47894e-13)
(-5.33038e-11 0.000129967 8.35391e-14)
(-5.13361e-11 0.000132381 7.88845e-14)
(-5.59741e-11 0.00014225 1.44415e-13)
(-6.0849e-11 0.00015308 1.4823e-13)
(-6.66064e-11 0.0001639 1.47852e-13)
(-7.03754e-11 0.000173708 8.23979e-14)
(-6.93226e-11 0.000176117 8.00102e-14)
(-7.28162e-11 0.00018598 1.44138e-13)
(-7.9103e-11 0.000196817 1.49825e-13)
(-8.32292e-11 0.000207734 1.5144e-13)
(-8.95425e-11 0.000218563 1.48107e-13)
(-9.30623e-11 0.000228378 8.36546e-14)
(-9.19422e-11 0.000230786 8.02889e-14)
(-9.57252e-11 0.000240642 1.46545e-13)
(-1.01472e-10 0.000251472 1.49548e-13)
(-1.0637e-10 0.000262295 1.48416e-13)
(-1.11053e-10 0.000272113 8.2652e-14)
(-1.08975e-10 0.00027452 8.09009e-14)
(-1.13556e-10 0.000284374 1.46058e-13)
(-1.1864e-10 0.000295203 1.49726e-13)
(-1.24083e-10 0.000306027 1.47786e-13)
(-1.2831e-10 0.000315848 8.26623e-14)
(-1.26614e-10 0.000318254 8.07398e-14)
(-1.30883e-10 0.000328105 1.46205e-13)
(-1.36223e-10 0.000338934 1.49438e-13)
(-1.41451e-10 0.000349758 1.47667e-13)
(-1.45853e-10 0.000359582 8.23775e-14)
(-1.44017e-10 0.000361987 8.08626e-14)
(-1.48402e-10 0.000371837 1.46112e-13)
(-1.53647e-10 0.000382666 1.49388e-13)
(-1.58948e-10 0.00039349 1.47428e-13)
(-1.63289e-10 0.000403315 8.22788e-14)
(-1.61503e-10 0.000405721 8.08536e-14)
(-1.65854e-10 0.000415569 1.4613e-13)
(-1.71121e-10 0.000426398 1.49269e-13)
(-1.76408e-10 0.000437223 1.47309e-13)
(-1.80752e-10 0.000447049 8.21353e-14)
(-1.78974e-10 0.000449454 8.09067e-14)
(-1.83309e-10 0.000459301 1.46085e-13)
(-1.88601e-10 0.00047013 1.4923e-13)
(-1.93851e-10 0.000480955 1.47152e-13)
(-1.98242e-10 0.000490782 8.20813e-14)
(-1.96406e-10 0.000493187 8.0881e-14)
(-2.00816e-10 0.000503033 1.46126e-13)
(-2.06015e-10 0.000513862 1.49109e-13)
(-2.11376e-10 0.000524687 1.47123e-13)
(-2.1563e-10 0.000534515 8.19175e-14)
(-2.13962e-10 0.00053692 8.09991e-14)
(-2.18172e-10 0.000546766 1.45996e-13)
(-2.23611e-10 0.000557594 1.49204e-13)
(-2.28683e-10 0.000568419 1.46865e-13)
(-2.33282e-10 0.000578248 8.20571e-14)
(-2.31201e-10 0.000580653 8.0767e-14)
(-2.35907e-10 0.000590498 1.46282e-13)
(-2.40751e-10 0.000601326 1.48808e-13)
(-2.46534e-10 0.000612152 1.47214e-13)
(-2.50281e-10 0.000621981 8.14949e-14)
(-2.49222e-10 0.000624385 8.13893e-14)
(-2.52706e-10 0.000634231 1.45586e-13)
(-2.59017e-10 0.000645066 1.50345e-13)
(-2.63126e-10 0.000655983 1.50855e-13)
(-2.69443e-10 0.000666816 1.46808e-13)
(-2.72941e-10 0.000676647 8.25231e-14)
(-2.71854e-10 0.000679051 8.08477e-14)
(-2.75615e-10 0.000688896 1.46838e-13)
(-2.81381e-10 0.000699723 1.4919e-13)
(-2.86252e-10 0.000710549 1.47455e-13)
(-2.90948e-10 0.00072038 8.1824e-14)
(-2.88865e-10 0.000722784 8.13693e-14)
(-2.93457e-10 0.000732628 1.46366e-13)
(-2.98531e-10 0.000743456 1.49499e-13)
(-3.03976e-10 0.000754282 1.47079e-13)
(-3.08192e-10 0.000764112 8.20228e-14)
(-3.06511e-10 0.000766517 8.1156e-14)
(-3.10768e-10 0.00077636 1.46508e-13)
(-3.16122e-10 0.000787188 1.49309e-13)
(-3.21331e-10 0.000798014 1.47129e-13)
(-3.25745e-10 0.000807845 8.1882e-14)
(-3.23898e-10 0.00081025 8.12274e-14)
(-3.28299e-10 0.000820093 1.4642e-13)
(-3.33528e-10 0.00083092 1.49313e-13)
(-3.38845e-10 0.000841746 1.47033e-13)
(-3.43161e-10 0.000851578 8.1867e-14)
(-3.41405e-10 0.000853982 8.12058e-14)
(-3.45721e-10 0.000863825 1.46404e-13)
(-3.51032e-10 0.000874653 1.49274e-13)
(-3.56266e-10 0.000885479 1.46971e-13)
(-3.60668e-10 0.000895311 8.18477e-14)
(-3.58821e-10 0.000897715 8.11743e-14)
(-3.63238e-10 0.000907557 1.4642e-13)
(-3.68435e-10 0.000918385 1.4919e-13)
(-3.73799e-10 0.000929211 1.46984e-13)
(-3.7805e-10 0.000939043 8.17371e-14)
(-3.7638e-10 0.000941448 8.1265e-14)
(-3.8059e-10 0.00095129 1.46286e-13)
(-3.86032e-10 0.000962118 1.49297e-13)
(-3.91103e-10 0.000972944 1.46772e-13)
(-3.95702e-10 0.000982776 8.19101e-14)
(-3.93618e-10 0.00098518 8.10164e-14)
(-3.98323e-10 0.000995022 1.46562e-13)
(-4.03173e-10 0.00100585 1.48914e-13)
(-4.08953e-10 0.00101668 1.47156e-13)
(-4.12702e-10 0.00102651 8.13729e-14)
(-4.11636e-10 0.00102891 8.16287e-14)
(-4.15123e-10 0.00103876 1.45849e-13)
(-4.21436e-10 0.00104959 1.50466e-13)
(-4.25546e-10 0.00106051 1.5078e-13)
(-4.31861e-10 0.00107134 1.46601e-13)
(-4.35357e-10 0.00108117 8.23279e-14)
(-4.34273e-10 0.00108358 8.09728e-14)
(-4.38033e-10 0.00109342 1.46924e-13)
(-4.43801e-10 0.00110425 1.49145e-13)
(-4.48668e-10 0.00111507 1.47281e-13)
(-4.53365e-10 0.00112491 8.16616e-14)
(-4.51283e-10 0.00112731 8.14895e-14)
(-4.55874e-10 0.00113715 1.46461e-13)
(-4.6095e-10 0.00114798 1.49475e-13)
(-4.66392e-10 0.00115881 1.46936e-13)
(-4.7061e-10 0.00116864 8.18866e-14)
(-4.68927e-10 0.00117104 8.12706e-14)
(-4.73188e-10 0.00118089 1.46614e-13)
(-4.78538e-10 0.00119171 1.49297e-13)
(-4.83752e-10 0.00120254 1.4702e-13)
(-4.88158e-10 0.00121237 8.17586e-14)
(-4.8632e-10 0.00121478 8.1349e-14)
(-4.90708e-10 0.00122462 1.4652e-13)
(-4.95954e-10 0.00123545 1.4933e-13)
(-5.01252e-10 0.00124627 1.46931e-13)
(-5.05591e-10 0.0012561 8.17803e-14)
(-5.03807e-10 0.00125851 8.13019e-14)
(-5.08155e-10 0.00126835 1.46536e-13)
(-5.13429e-10 0.00127918 1.4927e-13)
(-5.18708e-10 0.00129 1.46928e-13)
(-5.23055e-10 0.00129984 8.17287e-14)
(-5.21274e-10 0.00130224 8.13246e-14)
(-5.2561e-10 0.00131208 1.46486e-13)
(-5.30905e-10 0.00132291 1.49277e-13)
(-5.36153e-10 0.00133374 1.46862e-13)
(-5.40542e-10 0.00134357 8.1748e-14)
(-5.38705e-10 0.00134597 8.12727e-14)
(-5.43113e-10 0.00135581 1.46522e-13)
(-5.48319e-10 0.00136664 1.49192e-13)
(-5.53675e-10 0.00137747 1.46905e-13)
(-5.57932e-10 0.0013873 8.16427e-14)
(-5.56257e-10 0.00138971 8.13689e-14)
(-5.60471e-10 0.00139955 1.46384e-13)
(-5.6591e-10 0.00141037 1.49315e-13)
(-5.70984e-10 0.0014212 1.46704e-13)
(-5.7558e-10 0.00143104 8.18324e-14)
(-5.73499e-10 0.00143344 8.11144e-14)
(-5.782e-10 0.00144328 1.46667e-13)
(-5.83054e-10 0.00145411 1.48937e-13)
(-5.88831e-10 0.00146493 1.47106e-13)
(-5.92583e-10 0.00147477 8.13021e-14)
(-5.91514e-10 0.00147717 8.17292e-14)
(-5.95003e-10 0.00148701 1.4595e-13)
(-6.01315e-10 0.00149785 1.505e-13)
(-6.05425e-10 0.00150876 1.5072e-13)
(-6.1174e-10 0.0015196 1.46479e-13)
(-6.15234e-10 0.00152943 8.22191e-14)
(-6.14153e-10 0.00153184 8.10227e-14)
(-6.17911e-10 0.00154168 1.46943e-13)
(-6.23682e-10 0.00155251 1.49101e-13)
(-6.28545e-10 0.00156333 1.4717e-13)
(-6.33244e-10 0.00157317 8.15685e-14)
(-6.31161e-10 0.00157557 8.15369e-14)
(-6.35755e-10 0.00158541 1.4649e-13)
(-6.40828e-10 0.00159624 1.49439e-13)
(-6.46272e-10 0.00160706 1.46843e-13)
(-6.50486e-10 0.0016169 8.18001e-14)
(-6.48808e-10 0.0016193 8.13232e-14)
(-6.53064e-10 0.00162914 1.46644e-13)
(-6.5842e-10 0.00163997 1.49276e-13)
(-6.63626e-10 0.0016508 1.46934e-13)
(-6.68041e-10 0.00166063 8.16889e-14)
(-6.66193e-10 0.00166304 8.13931e-14)
(-6.70594e-10 0.00167288 1.46566e-13)
(-6.75825e-10 0.0016837 1.49303e-13)
(-6.81141e-10 0.00169453 1.46873e-13)
(-6.85457e-10 0.00170436 8.16999e-14)
(-6.837e-10 0.00170677 8.13693e-14)
(-6.88016e-10 0.00171661 1.46558e-13)
(-6.93329e-10 0.00172744 1.49284e-13)
(-6.98562e-10 0.00173826 1.46841e-13)
(-7.02963e-10 0.0017481 8.17028e-14)
(-7.01116e-10 0.0017505 8.1336e-14)
(-7.05532e-10 0.00176034 1.46581e-13)
(-7.10732e-10 0.00177117 1.49216e-13)
(-7.16093e-10 0.00178199 1.46881e-13)
(-7.20346e-10 0.00179183 8.16117e-14)
(-7.18673e-10 0.00179423 8.14247e-14)
(-7.22884e-10 0.00180407 1.46451e-13)
(-7.28327e-10 0.0018149 1.49339e-13)
(-7.33399e-10 0.00182573 1.4669e-13)
(-7.37996e-10 0.00183556 8.18029e-14)
(-7.35913e-10 0.00183797 8.11728e-14)
(-7.40615e-10 0.00184781 1.46733e-13)
(-7.45469e-10 0.00185863 1.48966e-13)
(-7.51246e-10 0.00186946 1.47098e-13)
(-7.54998e-10 0.00187929 8.12774e-14)
(-7.53928e-10 0.0018817 8.17874e-14)
(-7.57417e-10 0.00189154 1.46017e-13)
(-7.6373e-10 0.00190237 1.50533e-13)
(-7.6784e-10 0.00191329 1.50707e-13)
(-7.74155e-10 0.00192412 1.46433e-13)
(-7.77649e-10 0.00193396 8.21743e-14)
(-7.76569e-10 0.00193636 8.10561e-14)
(-7.80327e-10 0.0019462 1.4697e-13)
(-7.86097e-10 0.00195703 1.49094e-13)
(-7.90961e-10 0.00196786 1.47131e-13)
(-7.95658e-10 0.00197769 8.15283e-14)
(-7.93577e-10 0.0019801 8.15718e-14)
(-7.98169e-10 0.00198994 1.46519e-13)
(-8.03245e-10 0.00200076 1.49438e-13)
(-8.08686e-10 0.00201159 1.46808e-13)
(-8.12903e-10 0.00202142 8.17672e-14)
(-8.11221e-10 0.00202383 8.13552e-14)
(-8.15481e-10 0.00203367 1.4668e-13)
(-8.20832e-10 0.0020445 1.49274e-13)
(-8.26045e-10 0.00205532 1.4691e-13)
(-8.30451e-10 0.00206516 8.16522e-14)
(-8.28614e-10 0.00206756 8.14349e-14)
(-8.33002e-10 0.0020774 1.46593e-13)
(-8.38248e-10 0.00208823 1.49319e-13)
(-8.43546e-10 0.00209905 1.46839e-13)
(-8.47884e-10 0.00210889 8.16859e-14)
(-8.461e-10 0.00211129 8.13889e-14)
(-8.50448e-10 0.00212113 1.46615e-13)
(-8.55723e-10 0.00213196 1.4927e-13)
(-8.61002e-10 0.00214279 1.46851e-13)
(-8.65348e-10 0.00215262 8.16449e-14)
(-8.63567e-10 0.00215503 8.14126e-14)
(-8.67904e-10 0.00216487 1.46572e-13)
(-8.73199e-10 0.00217569 1.49287e-13)
(-8.78446e-10 0.00218652 1.46798e-13)
(-8.82835e-10 0.00219635 8.1674e-14)
(-8.80998e-10 0.00219876 8.13613e-14)
(-8.85406e-10 0.0022086 1.46612e-13)
(-8.90613e-10 0.00221943 1.49211e-13)
(-8.95968e-10 0.00223025 1.46854e-13)
(-9.00226e-10 0.00224009 8.15775e-14)
(-8.98549e-10 0.00224249 8.14581e-14)
(-9.02764e-10 0.00225233 1.46478e-13)
(-9.08204e-10 0.00226316 1.49342e-13)
(-9.13278e-10 0.00227398 1.46663e-13)
(-9.17873e-10 0.00228382 8.17757e-14)
(-9.15791e-10 0.00228622 8.12034e-14)
(-9.20492e-10 0.00229606 1.46766e-13)
(-9.25348e-10 0.00230689 1.4897e-13)
(-9.31124e-10 0.00231772 1.47078e-13)
(-9.34877e-10 0.00232755 8.12508e-14)
(-9.33805e-10 0.00232996 8.1821e-14)
(-9.37295e-10 0.0023398 1.46049e-13)
(-9.43608e-10 0.00235063 1.50542e-13)
(-9.47718e-10 0.00236155 1.50682e-13)
(-9.54032e-10 0.00237238 1.46387e-13)
(-9.57526e-10 0.00238222 8.21333e-14)
(-9.56447e-10 0.00238462 8.10727e-14)
(-9.60204e-10 0.00239446 1.46973e-13)
(-9.65975e-10 0.00240529 1.49075e-13)
(-9.70837e-10 0.00241611 1.47087e-13)
(-9.75537e-10 0.00242595 8.14931e-14)
(-9.73454e-10 0.00242835 8.1587e-14)
(-9.78048e-10 0.00243819 1.46528e-13)
(-9.83121e-10 0.00244902 1.4942e-13)
(-9.88565e-10 0.00245985 1.46771e-13)
(-9.92778e-10 0.00246968 8.17315e-14)
(-9.91101e-10 0.00247209 8.13752e-14)
(-9.95356e-10 0.00248193 1.46686e-13)
(-1.00071e-09 0.00249275 1.49265e-13)
(-1.00592e-09 0.00250358 1.46871e-13)
(-1.01033e-09 0.00251342 8.16271e-14)
(-1.00849e-09 0.00251582 8.14466e-14)
(-1.01289e-09 0.00252566 1.46613e-13)
(-1.01812e-09 0.00253649 1.493e-13)
(-1.02343e-09 0.00254731 1.46819e-13)
(-1.02775e-09 0.00255715 8.16445e-14)
(-1.02599e-09 0.00255955 8.14241e-14)
(-1.03031e-09 0.00256939 1.4661e-13)
(-1.03562e-09 0.00258022 1.49287e-13)
(-1.04085e-09 0.00259104 1.46796e-13)
(-1.04526e-09 0.00260088 8.1653e-14)
(-1.04341e-09 0.00260328 8.1392e-14)
(-1.04782e-09 0.00261312 1.46636e-13)
(-1.05303e-09 0.00262395 1.49226e-13)
(-1.05839e-09 0.00263478 1.46844e-13)
(-1.06264e-09 0.00264461 8.15673e-14)
(-1.06097e-09 0.00264702 8.14817e-14)
(-1.06518e-09 0.00265686 1.4651e-13)
(-1.07062e-09 0.00266768 1.49354e-13)
(-1.07569e-09 0.00267851 1.46661e-13)
(-1.08029e-09 0.00268835 8.17638e-14)
(-1.07821e-09 0.00269075 8.12302e-14)
(-1.08291e-09 0.00270059 1.46797e-13)
(-1.08776e-09 0.00271142 1.48985e-13)
(-1.09354e-09 0.00272224 1.47076e-13)
(-1.09729e-09 0.00273208 8.12416e-14)
(-1.09622e-09 0.00273448 8.18474e-14)
(-1.09971e-09 0.00274432 1.46081e-13)
(-1.10602e-09 0.00275516 1.50559e-13)
(-1.11013e-09 0.00276607 1.50679e-13)
(-1.11645e-09 0.00277691 1.46368e-13)
(-1.11994e-09 0.00278674 8.21149e-14)
(-1.11886e-09 0.00278915 8.10885e-14)
(-1.12262e-09 0.00279899 1.46988e-13)
(-1.12839e-09 0.00280981 1.49073e-13)
(-1.13325e-09 0.00282064 1.47071e-13)
(-1.13795e-09 0.00283048 8.14756e-14)
(-1.13587e-09 0.00283288 8.16045e-14)
(-1.14046e-09 0.00284272 1.46542e-13)
(-1.14554e-09 0.00285355 1.49423e-13)
(-1.15098e-09 0.00286437 1.46756e-13)
(-1.15519e-09 0.00287421 8.17187e-14)
(-1.15351e-09 0.00287661 8.13897e-14)
(-1.15777e-09 0.00288645 1.46706e-13)
(-1.16313e-09 0.00289728 1.49264e-13)
(-1.16834e-09 0.00290811 1.46865e-13)
(-1.17274e-09 0.00291794 8.16082e-14)
(-1.17091e-09 0.00292035 8.14708e-14)
(-1.17529e-09 0.00293018 1.46623e-13)
(-1.18054e-09 0.00294101 1.49314e-13)
(-1.18584e-09 0.00295184 1.46799e-13)
(-1.19018e-09 0.00296167 8.1646e-14)
(-1.18839e-09 0.00296408 8.14259e-14)
(-1.19274e-09 0.00297392 1.46649e-13)
(-1.19802e-09 0.00298474 1.4927e-13)
(-1.20329e-09 0.00299557 1.46817e-13)
(-1.20764e-09 0.00300541 8.16088e-14)
(-1.20586e-09 0.00300781 8.14507e-14)
(-1.2102e-09 0.00301765 1.46609e-13)
(-1.21549e-09 0.00302848 1.49292e-13)
(-1.22074e-09 0.0030393 1.4677e-13)
(-1.22513e-09 0.00304914 8.16415e-14)
(-1.22329e-09 0.00305154 8.14005e-14)
(-1.2277e-09 0.00306138 1.46652e-13)
(-1.23291e-09 0.00307221 1.49219e-13)
(-1.23826e-09 0.00308304 1.46831e-13)
(-1.24252e-09 0.00309287 8.15483e-14)
(-1.24084e-09 0.00309528 8.14983e-14)
(-1.24506e-09 0.00310511 1.46521e-13)
(-1.2505e-09 0.00311594 1.49354e-13)
(-1.25557e-09 0.00312677 1.46645e-13)
(-1.26016e-09 0.0031366 8.17499e-14)
(-1.25808e-09 0.00313901 8.12441e-14)
(-1.26278e-09 0.00314885 1.46811e-13)
(-1.26764e-09 0.00315967 1.48985e-13)
(-1.27342e-09 0.0031705 1.47064e-13)
(-1.27717e-09 0.00318034 8.12271e-14)
(-1.2761e-09 0.00318274 8.18636e-14)
(-1.27959e-09 0.00319258 1.46095e-13)
(-1.2859e-09 0.00320341 1.50562e-13)
(-1.29001e-09 0.00321433 1.50665e-13)
(-1.29632e-09 0.00322517 1.46343e-13)
(-1.29982e-09 0.003235 8.20929e-14)
(-1.29874e-09 0.00323741 8.10964e-14)
(-1.3025e-09 0.00324724 1.46988e-13)
(-1.30827e-09 0.00325807 1.49062e-13)
(-1.31313e-09 0.0032689 1.47047e-13)
(-1.31783e-09 0.00327873 8.1457e-14)
(-1.31575e-09 0.00328114 8.16111e-14)
(-1.32034e-09 0.00329098 1.46546e-13)
(-1.32541e-09 0.0033018 1.49411e-13)
(-1.33086e-09 0.00331263 1.46736e-13)
(-1.33507e-09 0.00332247 8.16983e-14)
(-1.33339e-09 0.00332487 8.14006e-14)
(-1.33765e-09 0.00333471 1.46707e-13)
(-1.34301e-09 0.00334554 1.4926e-13)
(-1.34821e-09 0.00335636 1.46841e-13)
(-1.35263e-09 0.0033662 8.15967e-14)
(-1.35078e-09 0.0033686 8.14731e-14)
(-1.35518e-09 0.00337844 1.46636e-13)
(-1.36041e-09 0.00338927 1.49298e-13)
(-1.36572e-09 0.0034001 1.46793e-13)
(-1.37004e-09 0.00340993 8.16168e-14)
(-1.36828e-09 0.00341234 8.14515e-14)
(-1.3726e-09 0.00342217 1.46636e-13)
(-1.37791e-09 0.003433 1.49289e-13)
(-1.38315e-09 0.00344383 1.46774e-13)
(-1.38755e-09 0.00345366 8.16279e-14)
(-1.3857e-09 0.00345607 8.14204e-14)
(-1.39012e-09 0.00346591 1.46665e-13)
(-1.39532e-09 0.00347673 1.4923e-13)
(-1.40068e-09 0.00348756 1.46825e-13)
(-1.40493e-09 0.0034974 8.15447e-14)
(-1.40326e-09 0.0034998 8.1511e-14)
(-1.40747e-09 0.00350964 1.46541e-13)
(-1.41291e-09 0.00352047 1.49361e-13)
(-1.41798e-09 0.00353129 1.46645e-13)
(-1.42258e-09 0.00354113 8.17435e-14)
(-1.4205e-09 0.00354353 8.12601e-14)
(-1.4252e-09 0.00355337 1.46829e-13)
(-1.43005e-09 0.0035642 1.48995e-13)
(-1.43583e-09 0.00357503 1.47064e-13)
(-1.43958e-09 0.00358486 8.12228e-14)
(-1.43851e-09 0.00358727 8.18789e-14)
(-1.442e-09 0.00359711 1.46115e-13)
(-1.44831e-09 0.00360794 1.50572e-13)
(-1.45242e-09 0.00361886 1.50664e-13)
(-1.45874e-09 0.00362969 1.46334e-13)
(-1.46223e-09 0.00363953 8.20834e-14)
(-1.46115e-09 0.00364193 8.11057e-14)
(-1.46491e-09 0.00365177 1.46997e-13)
(-1.47068e-09 0.0036626 1.49062e-13)
(-1.47554e-09 0.00367342 1.47039e-13)
(-1.48024e-09 0.00368326 8.14473e-14)
(-1.47816e-09 0.00368566 8.16222e-14)
(-1.48275e-09 0.0036955 1.46555e-13)
(-1.48783e-09 0.00370633 1.49414e-13)
(-1.49327e-09 0.00371716 1.46728e-13)
(-1.49749e-09 0.00372699 8.16925e-14)
(-1.49581e-09 0.0037294 8.14084e-14)
(-1.50007e-09 0.00373924 1.46721e-13)
(-1.50542e-09 0.00375006 1.49259e-13)
(-1.51063e-09 0.00376089 1.4684e-13)
(-1.51503e-09 0.00377072 8.15841e-14)
(-1.5132e-09 0.00377313 8.14904e-14)
(-1.51759e-09 0.00378297 1.4664e-13)
(-1.52283e-09 0.00379379 1.49312e-13)
(-1.52813e-09 0.00380462 1.46778e-13)
(-1.53247e-09 0.00381446 8.16239e-14)
(-1.53068e-09 0.00381686 8.14464e-14)
(-1.53503e-09 0.0038267 1.46668e-13)
(-1.54031e-09 0.00383753 1.4927e-13)
(-1.54559e-09 0.00384835 1.46799e-13)
(-1.54993e-09 0.00385819 8.15887e-14)
(-1.54815e-09 0.00386059 8.14721e-14)
(-1.55249e-09 0.00387043 1.4663e-13)
(-1.55778e-09 0.00388126 1.49294e-13)
(-1.56303e-09 0.00389209 1.46754e-13)
(-1.56742e-09 0.00390192 8.16232e-14)
(-1.56558e-09 0.00390433 8.14226e-14)
(-1.56999e-09 0.00391417 1.46675e-13)
(-1.5752e-09 0.00392499 1.49224e-13)
(-1.58055e-09 0.00393582 1.46818e-13)
(-1.58481e-09 0.00394565 8.15317e-14)
(-1.58313e-09 0.00394806 8.15212e-14)
(-1.58735e-09 0.0039579 1.46545e-13)
(-1.59279e-09 0.00396872 1.49361e-13)
(-1.59786e-09 0.00397955 1.46634e-13)
(-1.60246e-09 0.00398939 8.17351e-14)
(-1.60037e-09 0.00399179 8.12675e-14)
(-1.60508e-09 0.00400163 1.46838e-13)
(-1.60993e-09 0.00401246 1.48994e-13)
(-1.61571e-09 0.00402328 1.47057e-13)
(-1.61946e-09 0.00403312 8.12133e-14)
(-1.61839e-09 0.00403552 8.18884e-14)
(-1.62188e-09 0.00404536 1.46122e-13)
(-1.62819e-09 0.0040562 1.50573e-13)
(-1.6323e-09 0.00406711 1.50654e-13)
(-1.63862e-09 0.00407795 1.46318e-13)
(-1.64211e-09 0.00408779 8.20693e-14)
(-1.64103e-09 0.00409019 8.11103e-14)
(-1.64479e-09 0.00410003 1.46996e-13)
(-1.65056e-09 0.00411086 1.49055e-13)
(-1.65542e-09 0.00412168 1.47023e-13)
(-1.66012e-09 0.00413152 8.14358e-14)
(-1.65804e-09 0.00413392 8.16252e-14)
(-1.66263e-09 0.00414376 1.46556e-13)
(-1.6677e-09 0.00415459 1.49406e-13)
(-1.67315e-09 0.00416541 1.46716e-13)
(-1.67736e-09 0.00417525 8.16786e-14)
(-1.67569e-09 0.00417765 8.14157e-14)
(-1.67994e-09 0.00418749 1.46719e-13)
(-1.6853e-09 0.00419832 1.49257e-13)
(-1.6905e-09 0.00420915 1.46823e-13)
(-1.69492e-09 0.00421898 8.15786e-14)
(-1.69307e-09 0.00422139 8.14889e-14)
(-1.69747e-09 0.00423123 1.4665e-13)
(-1.7027e-09 0.00424205 1.49297e-13)
(-1.70802e-09 0.00425288 1.46777e-13)
(-1.71233e-09 0.00426272 8.16002e-14)
(-1.71058e-09 0.00426512 8.1468e-14)
(-1.71489e-09 0.00427496 1.46652e-13)
(-1.72021e-09 0.00428579 1.4929e-13)
(-1.72544e-09 0.00429661 1.4676e-13)
(-1.72984e-09 0.00430645 8.16127e-14)
(-1.72799e-09 0.00430885 8.14375e-14)
(-1.73241e-09 0.00431869 1.46682e-13)
(-1.73761e-09 0.00432952 1.49233e-13)
(-1.74297e-09 0.00434034 1.46814e-13)
(-1.74722e-09 0.00435018 8.15308e-14)
(-1.74555e-09 0.00435258 8.15288e-14)
(-1.74976e-09 0.00436242 1.46559e-13)
(-1.7552e-09 0.00437325 1.49366e-13)
(-1.76028e-09 0.00438408 1.46636e-13)
(-1.76487e-09 0.00439391 8.17311e-14)
(-1.76279e-09 0.00439632 8.12784e-14)
(-1.76749e-09 0.00440616 1.46849e-13)
(-1.77235e-09 0.00441698 1.49001e-13)
(-1.77812e-09 0.00442781 1.47057e-13)
(-1.78188e-09 0.00443765 8.12112e-14)
(-1.7808e-09 0.00444005 8.18983e-14)
(-1.78429e-09 0.00444989 1.46135e-13)
(-1.79061e-09 0.00446072 1.5058e-13)
(-1.79472e-09 0.00447164 1.50655e-13)
(-1.80103e-09 0.00448247 1.46313e-13)
(-1.80452e-09 0.00449231 8.20638e-14)
(-1.80345e-09 0.00449472 8.11165e-14)
(-1.8072e-09 0.00450455 1.47003e-13)
(-1.81297e-09 0.00451538 1.49056e-13)
(-1.81783e-09 0.00452621 1.4702e-13)
(-1.82253e-09 0.00453604 8.14297e-14)
(-1.82045e-09 0.00453845 8.16332e-14)
(-1.82504e-09 0.00454829 1.46562e-13)
(-1.83012e-09 0.00455911 1.49409e-13)
(-1.83556e-09 0.00456994 1.4671e-13)
(-1.83978e-09 0.00457978 8.1676e-14)
(-1.8381e-09 0.00458218 8.14202e-14)
(-1.84236e-09 0.00459202 1.4673e-13)
(-1.84771e-09 0.00460285 1.49256e-13)
(-1.85292e-09 0.00461367 1.46825e-13)
(-1.85733e-09 0.00462351 8.15689e-14)
(-1.85549e-09 0.00462591 8.15028e-14)
(-1.85988e-09 0.00463575 1.46651e-13)
(-1.86512e-09 0.00464658 1.4931e-13)
(-1.87042e-09 0.00465741 1.46764e-13)
(-1.87476e-09 0.00466724 8.16099e-14)
(-1.87298e-09 0.00466965 8.14595e-14)
(-1.87732e-09 0.00467948 1.4668e-13)
(-1.8826e-09 0.00469031 1.4927e-13)
(-1.88788e-09 0.00470114 1.46787e-13)
(-1.89222e-09 0.00471097 8.15759e-14)
(-1.89044e-09 0.00471338 8.14857e-14)
(-1.89478e-09 0.00472322 1.46643e-13)
(-1.90007e-09 0.00473404 1.49296e-13)
(-1.90532e-09 0.00474487 1.46744e-13)
(-1.90971e-09 0.00475471 8.16114e-14)
(-1.90787e-09 0.00475711 8.14368e-14)
(-1.91228e-09 0.00476695 1.46689e-13)
(-1.91749e-09 0.00477778 1.49227e-13)
(-1.92284e-09 0.0047886 1.46809e-13)
(-1.9271e-09 0.00479844 8.15211e-14)
(-1.92542e-09 0.00480084 8.15359e-14)
(-1.92964e-09 0.00481068 1.46561e-13)
(-1.93508e-09 0.00482151 1.49366e-13)
(-1.94015e-09 0.00483234 1.46628e-13)
(-1.94475e-09 0.00484217 8.17255e-14)
(-1.94267e-09 0.00484458 8.12826e-14)
(-1.94737e-09 0.00485441 1.46855e-13)
(-1.95222e-09 0.00486524 1.49e-13)
(-1.958e-09 0.00487607 1.47052e-13)
(-1.96175e-09 0.0048859 8.12044e-14)
(-1.96068e-09 0.00488831 8.19044e-14)
(-1.96417e-09 0.00489815 1.4614e-13)
(-1.97048e-09 0.00490898 1.50581e-13)
(-1.97459e-09 0.0049199 1.50648e-13)
(-1.98091e-09 0.00493073 1.46302e-13)
(-1.9844e-09 0.00494057 8.20539e-14)
(-1.98332e-09 0.00494297 8.11193e-14)
(-1.98708e-09 0.00495281 1.47001e-13)
(-1.99285e-09 0.00496364 1.4905e-13)
(-1.99771e-09 0.00497447 1.47008e-13)
(-2.00241e-09 0.0049843 8.14219e-14)
(-2.00033e-09 0.00498671 8.16345e-14)
(-2.00492e-09 0.00499654 1.46563e-13)
(-2.01e-09 0.00500737 1.49402e-13)
(-2.01544e-09 0.0050182 1.46702e-13)
(-2.01965e-09 0.00502803 8.16656e-14)
(-2.01798e-09 0.00503044 8.14256e-14)
(-2.02223e-09 0.00504028 1.46727e-13)
(-2.02759e-09 0.0050511 1.49255e-13)
(-2.03279e-09 0.00506193 1.46811e-13)
(-2.03721e-09 0.00507177 8.15666e-14)
(-2.03536e-09 0.00507417 8.14994e-14)
(-2.03976e-09 0.00508401 1.4666e-13)
(-2.04499e-09 0.00509484 1.49297e-13)
(-2.05031e-09 0.00510566 1.46767e-13)
(-2.05462e-09 0.0051155 8.15892e-14)
(-2.05287e-09 0.0051179 8.14789e-14)
(-2.05718e-09 0.00512774 1.46662e-13)
(-2.0625e-09 0.00513857 1.4929e-13)
(-2.06773e-09 0.0051494 1.46751e-13)
(-2.07213e-09 0.00515923 8.16025e-14)
(-2.07028e-09 0.00516164 8.1449e-14)
(-2.0747e-09 0.00517147 1.46693e-13)
(-2.0799e-09 0.0051823 1.49235e-13)
(-2.08526e-09 0.00519313 1.46806e-13)
(-2.08951e-09 0.00520296 8.15216e-14)
(-2.08784e-09 0.00520537 8.15408e-14)
(-2.09205e-09 0.00521521 1.46572e-13)
(-2.09749e-09 0.00522603 1.49369e-13)
(-2.10257e-09 0.00523686 1.4663e-13)
(-2.10716e-09 0.0052467 8.17227e-14)
(-2.10508e-09 0.0052491 8.12908e-14)
(-2.10978e-09 0.00525894 1.46863e-13)
(-2.11464e-09 0.00526977 1.49006e-13)
(-2.12041e-09 0.00528059 1.47052e-13)
(-2.12417e-09 0.00529043 8.12035e-14)
(-2.12309e-09 0.00529283 8.19115e-14)
(-2.12658e-09 0.00530267 1.46149e-13)
(-2.1329e-09 0.00531351 1.50586e-13)
(-2.13701e-09 0.00532442 1.50649e-13)
(-2.14332e-09 0.00533526 1.46298e-13)
(-2.14681e-09 0.0053451 8.20506e-14)
(-2.14574e-09 0.0053475 8.11237e-14)
(-2.14949e-09 0.00535734 1.47007e-13)
(-2.15527e-09 0.00536816 1.49051e-13)
(-2.16013e-09 0.00537899 1.47006e-13)
(-2.16483e-09 0.00538883 8.14176e-14)
(-2.16274e-09 0.00539123 8.16407e-14)
(-2.16734e-09 0.00540107 1.46568e-13)
(-2.17241e-09 0.0054119 1.49406e-13)
(-2.17785e-09 0.00542272 1.46698e-13)
(-2.18207e-09 0.00543256 8.16647e-14)
(-2.18039e-09 0.00543496 8.14283e-14)
(-2.18465e-09 0.0054448 1.46737e-13)
(-2.19e-09 0.00545563 1.49253e-13)
(-2.19521e-09 0.00546646 1.46814e-13)
(-2.19962e-09 0.00547629 8.15584e-14)
(-2.19778e-09 0.0054787 8.15114e-14)
(-2.20217e-09 0.00548853 1.46658e-13)
(-2.20742e-09 0.00549936 1.49309e-13)
(-2.21271e-09 0.00551019 1.46755e-13)
(-2.21705e-09 0.00552003 8.16003e-14)
(-2.21527e-09 0.00552243 8.14685e-14)
(-2.21961e-09 0.00553227 1.46688e-13)
(-2.22489e-09 0.00554309 1.4927e-13)
(-2.23017e-09 0.00555392 1.46779e-13)
(-2.23452e-09 0.00556376 8.15669e-14)
(-2.23273e-09 0.00556616 8.14952e-14)
(-2.23707e-09 0.005576 1.46652e-13)
(-2.24237e-09 0.00558683 1.49297e-13)
(-2.24761e-09 0.00559765 1.46737e-13)
(-2.252e-09 0.00560749 8.16033e-14)
(-2.25016e-09 0.00560989 8.14466e-14)
(-2.25457e-09 0.00561973 1.46699e-13)
(-2.25978e-09 0.00563056 1.49229e-13)
(-2.26513e-09 0.00564139 1.46803e-13)
(-2.26939e-09 0.00565122 8.15136e-14)
(-2.26771e-09 0.00565363 8.15462e-14)
(-2.27193e-09 0.00566346 1.46572e-13)
(-2.27737e-09 0.00567429 1.49369e-13)
(-2.28245e-09 0.00568512 1.46623e-13)
(-2.28704e-09 0.00569496 8.17188e-14)
(-2.28496e-09 0.00569736 8.12932e-14)
(-2.28966e-09 0.0057072 1.46866e-13)
(-2.29452e-09 0.00571802 1.49004e-13)
(-2.30029e-09 0.00572885 1.47048e-13)
(-2.30404e-09 0.00573869 8.11981e-14)
(-2.30297e-09 0.00574109 8.19157e-14)
(-2.30646e-09 0.00575093 1.46152e-13)
(-2.31277e-09 0.00576176 1.50586e-13)
(-2.31688e-09 0.00577268 1.50643e-13)
(-2.3232e-09 0.00578352 1.4629e-13)
(-2.32669e-09 0.00579335 8.2043e-14)
(-2.32561e-09 0.00579576 8.11257e-14)
(-2.32937e-09 0.0058056 1.47005e-13)
(-2.33514e-09 0.00581642 1.49047e-13)
(-2.34e-09 0.00582725 1.46997e-13)
(-2.3447e-09 0.00583709 8.14121e-14)
(-2.34262e-09 0.00583949 8.16411e-14)
(-2.34721e-09 0.00584933 1.46568e-13)
(-2.35229e-09 0.00586015 1.494e-13)
(-2.35773e-09 0.00587098 1.46692e-13)
(-2.36194e-09 0.00588082 8.16563e-14)
(-2.36027e-09 0.00588322 8.14327e-14)
(-2.36452e-09 0.00589306 1.46733e-13)
(-2.36988e-09 0.00590389 1.49253e-13)
(-2.37508e-09 0.00591471 1.46802e-13)
(-2.3795e-09 0.00592455 8.1558e-14)
(-2.37765e-09 0.00592695 8.15068e-14)
(-2.38205e-09 0.00593679 1.46666e-13)
(-2.38728e-09 0.00594762 1.49296e-13)
(-2.3926e-09 0.00595845 1.46759e-13)
(-2.39692e-09 0.00596828 8.15813e-14)
(-2.39516e-09 0.00597069 8.14868e-14)
(-2.39947e-09 0.00598053 1.46669e-13)
(-2.40479e-09 0.00599135 1.49291e-13)
(-2.41002e-09 0.00600218 1.46745e-13)
(-2.41442e-09 0.00601202 8.15953e-14)
(-2.41257e-09 0.00601442 8.14573e-14)
(-2.41699e-09 0.00602426 1.46701e-13)
(-2.42219e-09 0.00603508 1.49237e-13)
(-2.42755e-09 0.00604591 1.46801e-13)
(-2.43181e-09 0.00605575 8.15149e-14)
(-2.43013e-09 0.00605815 8.15494e-14)
(-2.43434e-09 0.00606799 1.46581e-13)
(-2.43979e-09 0.00607882 1.49372e-13)
(-2.44486e-09 0.00608964 1.46625e-13)
(-2.44945e-09 0.00609948 8.17168e-14)
(-2.44737e-09 0.00610188 8.12996e-14)
(-2.45207e-09 0.00611172 1.46873e-13)
(-2.45693e-09 0.00612255 1.49009e-13)
(-2.4627e-09 0.00613338 1.47049e-13)
(-2.46646e-09 0.00614321 8.11978e-14)
(-2.46538e-09 0.00614562 8.1921e-14)
(-2.46888e-09 0.00615546 1.4616e-13)
(-2.47519e-09 0.00616629 1.5059e-13)
(-2.4793e-09 0.00617721 1.50644e-13)
(-2.48561e-09 0.00618804 1.46288e-13)
(-2.48911e-09 0.00619788 8.20409e-14)
(-2.48803e-09 0.00620028 8.11291e-14)
(-2.49178e-09 0.00621012 1.4701e-13)
(-2.49756e-09 0.00622095 1.49048e-13)
(-2.50242e-09 0.00623177 1.46996e-13)
(-2.50712e-09 0.00624161 8.14089e-14)
(-2.50503e-09 0.00624402 8.16462e-14)
(-2.50963e-09 0.00625385 1.46572e-13)
(-2.5147e-09 0.00626468 1.49403e-13)
(-2.52014e-09 0.00627551 1.46689e-13)
(-2.52436e-09 0.00628534 8.16565e-14)
(-2.52268e-09 0.00628775 8.14342e-14)
(-2.52694e-09 0.00629759 1.46741e-13)
(-2.53229e-09 0.00630841 1.49252e-13)
(-2.5375e-09 0.00631924 1.46806e-13)
(-2.54191e-09 0.00632908 8.15508e-14)
(-2.54007e-09 0.00633148 8.15176e-14)
(-2.54446e-09 0.00634132 1.46664e-13)
(-2.54971e-09 0.00635215 1.49308e-13)
(-2.555e-09 0.00636297 1.46748e-13)
(-2.55934e-09 0.00637281 8.15932e-14)
(-2.55756e-09 0.00637521 8.14751e-14)
(-2.56191e-09 0.00638505 1.46694e-13)
(-2.56718e-09 0.00639588 1.4927e-13)
(-2.57246e-09 0.0064067 1.46773e-13)
(-2.57681e-09 0.00641654 8.15604e-14)
(-2.57502e-09 0.00641895 8.15021e-14)
(-2.57936e-09 0.00642878 1.46659e-13)
(-2.58466e-09 0.00643961 1.49298e-13)
(-2.5899e-09 0.00645044 1.46732e-13)
(-2.59429e-09 0.00646027 8.15973e-14)
(-2.59246e-09 0.00646268 8.14539e-14)
(-2.59686e-09 0.00647252 1.46707e-13)
(-2.60207e-09 0.00648334 1.49231e-13)
(-2.60743e-09 0.00649417 1.46799e-13)
(-2.61168e-09 0.00650401 8.15081e-14)
(-2.61001e-09 0.00650641 8.15538e-14)
(-2.61422e-09 0.00651625 1.4658e-13)
(-2.61966e-09 0.00652708 1.49371e-13)
(-2.62474e-09 0.0065379 1.46619e-13)
(-2.62933e-09 0.00654774 8.17139e-14)
(-2.62725e-09 0.00655014 8.13011e-14)
(-2.63195e-09 0.00655998 1.46875e-13)
(-2.63681e-09 0.00657081 1.49007e-13)
(-2.64258e-09 0.00658163 1.47046e-13)
(-2.64634e-09 0.00659147 8.11935e-14)
(-2.64526e-09 0.00659388 8.19241e-14)
(-2.64875e-09 0.00660371 1.46161e-13)
(-2.65507e-09 0.00661455 1.5059e-13)
(-2.65918e-09 0.00662547 1.50639e-13)
(-2.66549e-09 0.0066363 1.46281e-13)
(-2.66898e-09 0.00664614 8.2035e-14)
(-2.66791e-09 0.00664854 8.11304e-14)
(-2.67166e-09 0.00665838 1.47008e-13)
(-2.67743e-09 0.00666921 1.49044e-13)
(-2.68229e-09 0.00668003 1.46989e-13)
(-2.68699e-09 0.00668987 8.14047e-14)
(-2.68491e-09 0.00669227 8.16461e-14)
(-2.68951e-09 0.00670211 1.46572e-13)
(-2.69458e-09 0.00671294 1.49398e-13)
(-2.70002e-09 0.00672377 1.46685e-13)
(-2.70424e-09 0.0067336 8.16495e-14)
(-2.70256e-09 0.00673601 8.14379e-14)
(-2.70681e-09 0.00674584 1.46738e-13)
(-2.71217e-09 0.00675667 1.49252e-13)