/*--------------------------------*- C++ -*----------------------------------*\
| =========                 |                                                 |
| \\      /  F ield         | OpenFOAM: The Open Source CFD Toolbox           |
|  \\    /   O peration     | Version:  2206                                  |
|   \\  /    A nd           | Website:  www.openfoam.com                      |
|    \\/     M anipulation  |                                                 |
\*---------------------------------------------------------------------------*/
FoamFile
{
    version     2.0;
    format      ascii;
    arch        "LSB;label=32;scalar=64";
    class       volScalarField;
    location    "1000";
    object      p;
}
// * * * * * * * * * * * * * * * * * * * * * * * * * * * * * * * * * * * * * //

dimensions      [0 2 -2 0 0 0 0];

internalField   nonuniform List<scalar> 
100
(
-5.21398628e-09
0.0385808797
0.0563559941
0.0731161889
0.086046266
0.0966153885
0.105277705
0.112454977
0.118453514
0.123506819
0.127794533
0.131456571
0.134603063
0.13732155
0.139682235
0.141741895
0.143546788
0.145134879
0.146537524
0.147780786
0.148886448
0.14987282
0.150755361
0.151547196
0.152259509
0.152901876
0.153482525
0.154008559
0.154486122
0.154920556
0.155316515
0.155678068
0.156008784
0.1563118
0.156589882
0.156845477
0.15708075
0.157297626
0.157497817
0.157682854
0.1578541
0.158012782
0.158159995
0.158296729
0.158423872
0.158542228
0.158652519
0.158755405
0.158851478
0.158941281
0.159025302
0.159103991
0.159177753
0.159246962
0.159311957
0.159373049
0.159430523
0.15948464
0.15953564
0.159583745
0.159629155
0.15967206
0.159712629
0.159751023
0.159787387
0.159821859
0.159854562
0.159885614
0.15991512
0.159943184
0.159969894
0.15999534
0.160019599
0.160042748
0.160064853
0.160085982
0.160106193
0.160125543
0.160144083
0.160161864
0.16017893
0.160195325
0.160211089
0.160226258
0.160240868
0.160254953
0.160268543
0.160281667
0.160294352
0.160306624
0.160318507
0.160330025
0.160341197
0.160352042
0.160362573
0.160372827
0.16038293
0.160392969
0.160402086
0.160407402
)
;

boundaryField
{
    left
    {
        type            wedge;
    }
    right
    {
        type            wedge;
    }
    outerWall
    {
        type            zeroGradient;
    }
    innerWall
    {
        type            zeroGradient;
    }
    frontAndBack
    {
        type            empty;
    }
}


// ************************************************************************* //
