/*--------------------------------*- C++ -*----------------------------------*\
| =========                 |                                                 |
| \\      /  F ield         | OpenFOAM: The Open Source CFD Toolbox           |
|  \\    /   O peration     | Version:  2206                                  |
|   \\  /    A nd           | Website:  www.openfoam.com                      |
|    \\/     M anipulation  |                                                 |
\*---------------------------------------------------------------------------*/
FoamFile
{
    version     2.0;
    format      ascii;
    arch        "LSB;label=32;scalar=64";
    class       surfaceScalarField;
    location    "1000";
    object      phi;
}
// * * * * * * * * * * * * * * * * * * * * * * * * * * * * * * * * * * * * * //

dimensions      [0 3 -1 0 0 0 0];

oriented        oriented;

internalField   nonuniform List<scalar> 
99
(
7.21845062e-11
1.38250674e-10
1.98978083e-10
2.55106047e-10
3.07187845e-10
3.5572116e-10
4.01078219e-10
4.43621744e-10
4.83607506e-10
5.21314212e-10
5.56917693e-10
5.90643801e-10
6.22610348e-10
6.53008933e-10
6.81912341e-10
7.09492232e-10
7.35784964e-10
7.60950215e-10
7.84992954e-10
8.08069354e-10
8.30156253e-10
8.5141027e-10
8.71781912e-10
8.91433873e-10
9.10291729e-10
9.28526136e-10
9.46037981e-10
9.6301038e-10
9.79320033e-10
9.95163071e-10
1.010392e-09
1.0252194e-09
1.03947365e-09
1.05338385e-09
1.06675424e-09
1.07983275e-09
1.09239967e-09
1.10472142e-09
1.11655456e-09
1.12818541e-09
1.13934705e-09
1.15034541e-09
1.16089069e-09
1.17130841e-09
1.18128653e-09
1.19116972e-09
1.20062511e-09
1.21001533e-09
1.21898725e-09
1.22792175e-09
1.23644768e-09
1.24496035e-09
1.25307199e-09
1.26119288e-09
1.26892214e-09
1.27667924e-09
1.28405174e-09
1.29147006e-09
1.29851449e-09
1.30561768e-09
1.31235492e-09
1.31916353e-09
1.32561858e-09
1.33215282e-09
1.33834245e-09
1.3446203e-09
1.35056753e-09
1.35660666e-09
1.36232517e-09
1.36814053e-09
1.37365019e-09
1.37925714e-09
1.38456874e-09
1.3899807e-09
1.39511463e-09
1.40034547e-09
1.40530964e-09
1.41037012e-09
1.41518479e-09
1.42008639e-09
1.42475757e-09
1.42950889e-09
1.43405567e-09
1.43866684e-09
1.44309485e-09
1.44757424e-09
1.45189927e-09
1.45625806e-09
1.46048526e-09
1.464734e-09
1.46887937e-09
1.47302904e-09
1.4770982e-09
1.48115831e-09
1.48516049e-09
1.48914321e-09
1.49308574e-09
1.49699896e-09
1.50089185e-09
)
;

boundaryField
{
    left
    {
        type            wedge;
        value           nonuniform List<scalar> 
100
(
1.33588861e-05
1.22279865e-05
1.12413599e-05
1.03881828e-05
9.64114431e-06
8.98210637e-06
8.39653562e-06
7.87302825e-06
7.40242815e-06
6.97729068e-06
6.59149961e-06
6.23998263e-06
5.91849724e-06
5.6234681e-06
5.35186054e-06
5.10108196e-06
4.86890536e-06
4.65340653e-06
4.45291444e-06
4.265972e-06
4.09130232e-06
3.92778191e-06
3.77441921e-06
3.63033528e-06
3.49474843e-06
3.36696189e-06
3.24635212e-06
3.13235955e-06
3.02448128e-06
2.92226362e-06
2.82529627e-06
2.73320791e-06
2.6456612e-06
2.56234906e-06
2.48299188e-06
2.4073341e-06
2.33514172e-06
2.26620054e-06
2.20031369e-06
2.13730022e-06
2.07699323e-06
2.01923907e-06
1.96389562e-06
1.91083128e-06
1.85992439e-06
1.81106195e-06
1.7641389e-06
1.71905778e-06
1.6757277e-06
1.63406386e-06
1.59398731e-06
1.55542421e-06
1.51830538e-06
1.48256628e-06
1.44814631e-06
1.41498852e-06
1.38303966e-06
1.35224956e-06
1.32257095e-06
1.29395951e-06
1.26637339e-06
1.23977303e-06
1.21412127e-06
1.1893829e-06
1.16552469e-06
1.14251509e-06
1.12032439e-06
1.0989244e-06
1.07828827e-06
1.05839071e-06
1.03920763e-06
1.02071608e-06
1.00289438e-06
9.85721836e-07
9.69178707e-07
9.53246308e-07
9.37906777e-07
9.23143022e-07
9.08938864e-07
8.95278797e-07
8.82147958e-07
8.69532262e-07
8.57418185e-07
8.45792737e-07
8.34643598e-07
8.23958918e-07
8.13727291e-07
8.03937893e-07
7.94580276e-07
7.8564445e-07
7.77120752e-07
7.69e-07
7.61273288e-07
7.53931929e-07
7.46967464e-07
7.40371212e-07
7.34133629e-07
7.28243137e-07
7.22683557e-07
7.1742597e-07
)
;
    }
    right
    {
        type            wedge;
        value           nonuniform List<scalar> 
100
(
-1.33589583e-05
-1.22280525e-05
-1.12414206e-05
-1.03882389e-05
-9.64119639e-06
-8.98215489e-06
-8.39658099e-06
-7.87307079e-06
-7.40246814e-06
-6.97732838e-06
-6.59153522e-06
-6.24001634e-06
-5.91852922e-06
-5.62349848e-06
-5.35188945e-06
-5.10110952e-06
-4.86893167e-06
-4.65343167e-06
-4.4529385e-06
-4.26599505e-06
-4.09132442e-06
-3.92780313e-06
-3.7744396e-06
-3.6303549e-06
-3.49476731e-06
-3.36698008e-06
-3.24636966e-06
-3.13237648e-06
-3.02449762e-06
-2.9222794e-06
-2.82531153e-06
-2.73322267e-06
-2.64567549e-06
-2.5623629e-06
-2.4830053e-06
-2.40734711e-06
-2.33515433e-06
-2.26621278e-06
-2.20032558e-06
-2.13731176e-06
-2.07700445e-06
-2.01924998e-06
-1.96390623e-06
-1.91084161e-06
-1.85993444e-06
-1.81107173e-06
-1.76414843e-06
-1.71906706e-06
-1.67573675e-06
-1.63407268e-06
-1.59399592e-06
-1.55543261e-06
-1.51831359e-06
-1.48257429e-06
-1.44815413e-06
-1.41499617e-06
-1.38304713e-06
-1.35225686e-06
-1.32257809e-06
-1.2939665e-06
-1.26638023e-06
-1.23977973e-06
-1.21412783e-06
-1.18938933e-06
-1.16553098e-06
-1.14252126e-06
-1.12033045e-06
-1.09893033e-06
-1.07829409e-06
-1.05839643e-06
-1.03921324e-06
-1.02072159e-06
-1.00289979e-06
-9.85727162e-07
-9.69183943e-07
-9.53251458e-07
-9.37911843e-07
-9.23148009e-07
-9.08943774e-07
-8.95283634e-07
-8.82152724e-07
-8.6953696e-07
-8.57422817e-07
-8.45797306e-07
-8.34648107e-07
-8.23963369e-07
-8.13731687e-07
-8.03942237e-07
-7.94584569e-07
-7.85648694e-07
-7.77124951e-07
-7.69004154e-07
-7.61277401e-07
-7.53936002e-07
-7.469715e-07
-7.40375212e-07
-7.34137595e-07
-7.28247071e-07
-7.22687461e-07
-7.17429846e-07
)
;
    }
    outerWall
    {
        type            calculated;
        value           uniform 1.50476769e-09;
    }
    innerWall
    {
        type            calculated;
        value           uniform 0;
    }
    frontAndBack
    {
        type            empty;
        value           nonuniform List<scalar> 0();
    }
}


// ************************************************************************* //
