/*--------------------------------*- C++ -*----------------------------------*\
| =========                 |                                                 |
| \\      /  F ield         | OpenFOAM: The Open Source CFD Toolbox           |
|  \\    /   O peration     | Version:  2206                                  |
|   \\  /    A nd           | Website:  www.openfoam.com                      |
|    \\/     M anipulation  |                                                 |
\*---------------------------------------------------------------------------*/
FoamFile
{
    version     2.0;
    format      ascii;
    arch        "LSB;label=32;scalar=64";
    class       volVectorField;
    location    "1000";
    object      U;
}
// * * * * * * * * * * * * * * * * * * * * * * * * * * * * * * * * * * * * * //

dimensions      [0 1 -1 0 0 0 0];

internalField   nonuniform List<vector> 
100
(
(0.0121884221 0.593731479 0)
(-0.00391376504 0.543469001 0)
(0.000856021961 0.499618694 0)
(-0.00019870654 0.461699507 0)
(1.28005982e-05 0.428497617 0)
(-8.82735183e-06 0.399206884 0)
(1.68156216e-06 0.373181377 0)
(6.94908376e-06 0.349914256 0)
(1.14998964e-05 0.328998584 0)
(1.51567245e-05 0.310103483 7.33975757e-20)
(1.8142026e-05 0.292957121 -7.74952488e-20)
(2.05795733e-05 0.277334058 0)
(2.25722594e-05 0.263045745 0)
(2.42007109e-05 0.249933267 8.70084929e-20)
(2.55289047e-05 0.23786175 0)
(2.66082327e-05 0.22671598 0)
(2.74801942e-05 0.216396964 0)
(2.81787124e-05 0.206819182 0)
(2.87315195e-05 0.197908379 0)
(2.91616381e-05 0.189599781 0)
(2.94880774e-05 0.181836638 0)
(2.97267994e-05 0.174569029 0)
(2.98910668e-05 0.167752872 0)
(2.99921747e-05 0.161349104 0)
(3.00395512e-05 0.155322993 0)
(3.00412908e-05 0.14964356 0)
(3.00041491e-05 0.144283094 0)
(2.99340241e-05 0.139216733 0)
(2.98358348e-05 0.134422117 0)
(2.97139001e-05 0.129879083 0)
(2.95718048e-05 0.125569402 0)
(2.94127624e-05 0.121476564 0)
(2.92394208e-05 0.117585576 0)
(2.90541711e-05 0.113882796 0)
(2.88589611e-05 0.110355792 0)
(2.86555946e-05 0.106993203 0)
(2.84455224e-05 0.103784638 0)
(2.82301011e-05 0.100720569 0)
(2.80103997e-05 0.0977922485 0)
(2.77874519e-05 0.0949916324 0)
(2.75620541e-05 0.0923113097 0)
(2.73349909e-05 0.0897444442 0)
(2.71068494e-05 0.08728472 0)
(2.68782269e-05 0.0849262941 0)
(2.66495547e-05 0.0826637532 0)
(2.64212863e-05 0.0804920757 0)
(2.61937407e-05 0.0784065975 0)
(2.59672587e-05 0.0764029811 0)
(2.57420649e-05 0.0744771878 0)
(2.55184226e-05 0.072625453 0)
(2.52965048e-05 0.0708442636 0)
(2.50764951e-05 0.0691303372 0)
(2.48585032e-05 0.0674806043 0)
(2.46426701e-05 0.0658921912 0)
(2.44290912e-05 0.0643624048 0)
(2.42178491e-05 0.0628887189 0)
(2.40089916e-05 0.0614687617 0)
(2.38025869e-05 0.060100304 0)
(2.35986954e-05 0.058781249 0)
(2.33973324e-05 0.0575096227 0)
(2.31985157e-05 0.0562835649 0)
(2.30022582e-05 0.0551013217 0)
(2.28086027e-05 0.0539612374 0)
(2.26175201e-05 0.0528617483 0)
(2.24290139e-05 0.0518013762 0)
(2.22430694e-05 0.0507787229 0)
(2.20597225e-05 0.0497924646 6.85931603e-20)
(2.18789175e-05 0.0488413474 0)
(2.17006508e-05 0.0479241822 0)
(2.1524883e-05 0.0470398415 0)
(2.13516433e-05 0.0461872545 0)
(2.11808606e-05 0.0453654044 6.52248185e-20)
(2.1012526e-05 0.0445733245 0)
(2.08465967e-05 0.0438100954 0)
(2.06831095e-05 0.0430748422 0)
(2.05219785e-05 0.0423667317 -6.2707031e-20)
(2.03631926e-05 0.0416849702 0)
(2.02066976e-05 0.0410288007 0)
(2.00525418e-05 0.0403975013 0)
(1.99006192e-05 0.0397903831 0)
(1.97509323e-05 0.039206788 0)
(1.96034063e-05 0.0386460873 0)
(1.94581055e-05 0.0381076802 0)
(1.93149083e-05 0.0375909916 -5.81131457e-20)
(1.91738401e-05 0.0370954717 0)
(1.9034808e-05 0.0366205936 0)
(1.88978847e-05 0.036165853 0)
(1.87629521e-05 0.0357307663 5.60202195e-20)
(1.86300184e-05 0.03531487 0)
(1.8498946e-05 0.0349177192 0)
(1.83698917e-05 0.0345388869 0)
(1.82435399e-05 0.0341779626 5.40516409e-20)
(1.81210267e-05 0.0338345506 0)
(1.79972804e-05 0.033508267 0)
(1.78487882e-05 0.0331987335 0)
(1.76646038e-05 0.0329055645 5.2198849e-20)
(1.76484948e-05 0.0326283378 0)
(1.84289758e-05 0.0323665367 0)
(1.95640159e-05 0.0321194422 0)
(1.41951707e-05 0.0318857711 0)
)
;

boundaryField
{
    left
    {
        type            wedge;
    }
    right
    {
        type            wedge;
    }
    outerWall
    {
        type            navierSlip;
        value           uniform (0 0.0318143077 0);
        slipLength      uniform 1;
        wallVelocity    uniform (0 0 0);
    }
    innerWall
    {
        type            rotatingWallVelocity;
        origin          (0 0 0);
        axis            (0 0 1);
        omega           constant 12.566;
        value           uniform (0 0.628204307 -0);
    }
    frontAndBack
    {
        type            empty;
    }
}


// ************************************************************************* //
