/*--------------------------------*- C++ -*----------------------------------*\
| =========                 |                                                 |
| \\      /  F ield         | OpenFOAM: The Open Source CFD Toolbox           |
|  \\    /   O peration     | Version:  2206                                  |
|   \\  /    A nd           | Website:  www.openfoam.com                      |
|    \\/     M anipulation  |                                                 |
\*---------------------------------------------------------------------------*/
FoamFile
{
    version     2.0;
    format      ascii;
    arch        "LSB;label=32;scalar=64";
    class       volScalarField;
    location    "240";
    object      p;
}
// * * * * * * * * * * * * * * * * * * * * * * * * * * * * * * * * * * * * * //

dimensions      [0 2 -2 0 0 0 0];

internalField   nonuniform List<scalar> 
100000
(
-2.97962e-10
-2.32993e-08
-4.32586e-08
-4.90804e-08
-4.8483e-08
-4.0328e-08
-4.23006e-08
-3.34025e-08
-2.55542e-08
-9.82655e-09
4.04709e-09
1.79569e-08
3.74645e-08
5.77466e-08
8.28485e-08
1.08721e-07
1.31912e-07
1.62717e-07
1.91709e-07
2.28241e-07
2.6216e-07
2.96905e-07
3.35344e-07
3.76195e-07
4.19737e-07
4.66673e-07
5.14785e-07
5.599e-07
6.12521e-07
6.63533e-07
7.21447e-07
7.77597e-07
8.3315e-07
8.94217e-07
9.55273e-07
1.0219e-06
1.08782e-06
1.15228e-06
1.22294e-06
1.293e-06
1.36911e-06
1.4441e-06
1.51794e-06
1.59773e-06
1.67712e-06
1.76238e-06
1.84665e-06
1.92966e-06
2.0187e-06
2.10726e-06
2.20176e-06
2.29519e-06
2.38744e-06
2.48563e-06
2.58343e-06
2.68706e-06
2.78973e-06
2.89109e-06
2.99856e-06
3.1054e-06
3.21837e-06
3.33002e-06
3.44078e-06
3.55714e-06
3.67348e-06
3.7952e-06
3.9165e-06
4.03583e-06
4.16206e-06
4.2867e-06
4.41862e-06
4.54782e-06
4.6778e-06
4.81139e-06
4.94734e-06
5.08587e-06
5.2278e-06
5.37075e-06
5.51075e-06
5.65817e-06
5.80392e-06
5.95659e-06
6.10735e-06
6.25759e-06
6.41324e-06
6.56889e-06
6.73007e-06
6.89048e-06
7.04944e-06
7.21458e-06
7.37907e-06
7.54963e-06
7.71898e-06
7.88723e-06
8.06138e-06
8.23511e-06
8.41473e-06
8.59326e-06
8.77062e-06
8.95391e-06
9.13677e-06
9.3255e-06
9.51321e-06
9.69963e-06
9.89215e-06
1.0084e-05
1.0282e-05
1.04787e-05
1.06745e-05
1.08758e-05
1.10772e-05
1.12839e-05
1.14902e-05
1.16945e-05
1.19057e-05
1.21153e-05
1.23322e-05
1.25463e-05
1.27613e-05
1.29798e-05
1.32007e-05
1.34242e-05
1.36511e-05
1.38789e-05
1.41039e-05
1.43362e-05
1.45669e-05
1.48045e-05
1.50401e-05
1.52753e-05
1.55159e-05
1.57564e-05
1.60025e-05
1.62478e-05
1.64917e-05
1.67417e-05
1.69911e-05
1.72466e-05
1.75008e-05
1.77539e-05
1.8013e-05
1.82716e-05
1.85361e-05
1.87995e-05
1.90617e-05
1.93299e-05
1.95976e-05
1.98713e-05
2.01438e-05
2.04152e-05
2.06924e-05
2.09693e-05
2.1252e-05
2.15337e-05
2.18141e-05
2.21006e-05
2.23865e-05
2.26785e-05
2.29691e-05
2.32589e-05
2.35542e-05
2.38496e-05
2.41503e-05
2.44505e-05
2.47488e-05
2.5054e-05
2.53576e-05
2.56685e-05
2.59766e-05
2.62855e-05
2.6598e-05
2.69129e-05
2.72303e-05
2.75512e-05
2.7873e-05
2.81919e-05
2.85182e-05
2.88428e-05
2.91744e-05
2.9504e-05
2.98331e-05
3.01677e-05
3.05022e-05
3.08422e-05
3.11815e-05
3.15193e-05
3.18633e-05
3.22066e-05
3.2556e-05
3.29042e-05
3.32513e-05
3.36043e-05
3.39569e-05
3.43153e-05
3.46727e-05
3.50289e-05
3.5391e-05
3.57527e-05
3.61202e-05
3.64868e-05
3.6852e-05
3.72233e-05
3.7594e-05
3.79708e-05
3.83463e-05
3.87209e-05
3.91011e-05
3.94812e-05
3.98667e-05
4.02518e-05
4.06349e-05
4.10249e-05
4.14133e-05
4.1809e-05
4.22019e-05
4.25957e-05
4.2993e-05
4.33927e-05
4.3795e-05
4.42006e-05
4.46073e-05
4.5011e-05
4.54221e-05
4.58316e-05
4.6248e-05
4.66624e-05
4.70764e-05
4.74957e-05
4.7915e-05
4.83399e-05
4.8764e-05
4.91866e-05
4.96154e-05
5.00436e-05
5.04778e-05
5.09108e-05
5.13427e-05
5.17805e-05
5.22179e-05
5.26612e-05
5.31033e-05
5.35443e-05
5.39913e-05
5.44377e-05
5.48902e-05
5.53414e-05
5.57916e-05
5.62476e-05
5.67032e-05
5.71647e-05
5.76252e-05
5.80843e-05
5.85496e-05
5.90142e-05
5.9485e-05
5.99544e-05
6.04229e-05
6.0897e-05
6.13711e-05
6.18505e-05
6.23295e-05
6.28066e-05
6.32905e-05
6.37728e-05
6.42625e-05
6.47493e-05
6.5237e-05
6.57282e-05
6.62219e-05
6.6718e-05
6.72177e-05
6.77182e-05
6.82159e-05
6.87209e-05
6.92243e-05
6.97346e-05
7.0243e-05
7.07508e-05
7.12641e-05
7.17774e-05
7.22962e-05
7.28142e-05
7.33307e-05
7.38535e-05
7.43756e-05
7.49037e-05
7.54306e-05
7.59565e-05
7.64882e-05
7.70195e-05
7.75567e-05
7.80928e-05
7.86277e-05
7.91686e-05
7.9709e-05
8.02553e-05
8.08006e-05
8.13445e-05
8.18946e-05
8.2444e-05
8.29996e-05
8.35538e-05
8.41071e-05
8.4666e-05
8.52249e-05
8.57892e-05
8.6353e-05
8.69148e-05
8.74836e-05
8.80507e-05
8.86251e-05
8.91968e-05
8.97693e-05
9.03453e-05
9.09238e-05
9.15047e-05
9.20891e-05
9.26745e-05
9.3257e-05
9.38468e-05
9.4435e-05
9.50301e-05
9.56233e-05
9.6216e-05
9.6814e-05
9.74121e-05
9.80157e-05
9.86185e-05
9.92199e-05
9.98274e-05
0.000100434
0.000101047
0.000101659
0.00010227
0.000102886
0.000103502
0.000104124
0.000104745
0.000105365
0.000105991
0.000106616
0.000107247
0.000107877
0.000108506
0.000109141
0.000109775
0.000110415
0.000111054
0.000111692
0.000112336
0.00011298
0.000113629
0.000114277
0.000114924
0.000115577
0.00011623
0.000116888
0.000117546
0.000118202
0.000118864
0.000119525
0.000120194
0.000120859
0.000121526
0.000122196
0.000122868
0.000123543
0.000124221
0.000124901
0.000125577
0.000126261
0.000126943
0.000127632
0.000128319
0.000129006
0.000129698
0.00013039
0.000131087
0.000131784
0.000132479
0.000133181
0.000133881
0.000134588
0.000135294
0.000135998
0.000136709
0.000137419
0.000138135
0.00013885
0.000139563
0.000140283
0.000141002
0.000141727
0.000142451
0.000143174
0.000143902
0.000144631
0.000145365
0.000146098
0.00014683
0.000147567
0.000148305
0.000149048
0.000149791
0.000150531
0.000151279
0.000152024
0.000152778
0.000153528
0.000154279
0.000155034
0.000155791
0.000156551
0.000157314
0.000158078
0.000158839
0.000159608
0.000160375
0.000161149
0.00016192
0.000162692
0.000163469
0.000164245
0.000165028
0.000165809
0.000166589
0.000167376
0.000168161
0.000168953
0.000169743
0.000170533
0.000171328
0.000172123
0.000172924
0.000173723
0.000174522
0.000175326
0.00017613
0.00017694
0.000177748
0.000178556
0.00017937
0.000180183
0.000181002
0.000181819
0.000182636
0.000183459
0.000184281
0.000185109
0.000185936
0.000186762
0.000187593
0.000188425
0.000189262
0.000190098
0.000190933
0.000191774
0.000192614
0.000193461
0.000194305
0.00019515
0.000195999
0.00019685
0.000197704
0.000198561
0.000199419
0.000200274
0.000201136
0.000201997
0.000202865
0.000203731
0.000204596
0.000205467
0.000206337
0.000207214
0.000208089
0.000208963
0.000209843
0.000210723
0.000211608
0.000212493
0.000213376
0.000214265
0.000215154
0.000216049
0.000216942
0.000217835
0.000218733
0.000219631
0.000220534
0.000221437
0.000222339
0.000223246
0.000224153
0.000225066
0.000225978
0.000226888
0.000227805
0.000228721
0.000229643
0.000230564
0.000231483
0.000232409
0.000233334
0.000234266
0.000235195
0.000236125
0.000237058
0.000237994
0.000238933
0.000239874
0.000240817
0.000241757
0.000242704
0.00024365
0.000244603
0.000245553
0.000246503
0.000247459
0.000248414
0.000249375
0.000250336
0.000251294
0.000252259
0.000253224
0.000254194
0.000255163
0.000256131
0.000257105
0.000258079
0.000259058
0.000260037
0.000261014
0.000261997
0.00026298
0.000263968
0.000264956
0.000265942
0.000266934
0.000267926
0.000268923
0.00026992
0.000270915
0.000271917
0.000272918
0.000273925
0.00027493
0.000275935
0.000276945
0.000277955
0.000278971
0.000279986
0.000280999
0.000282019
0.000283038
0.000284064
0.000285087
0.00028611
0.000287138
0.000288168
0.0002892
0.000290236
0.000291272
0.000292306
0.000293347
0.000294387
0.000295433
0.000296478
0.000297522
0.000298571
0.000299621
0.000300676
0.00030173
0.000302783
0.000303842
0.0003049
0.000305964
0.000307027
0.000308089
0.000309157
0.000310224
0.000311298
0.00031237
0.000313441
0.000314518
0.000315595
0.000316677
0.000317759
0.000318839
0.000319925
0.000321011
0.000322102
0.000323193
0.000324282
0.000325377
0.000326472
0.000327573
0.000328673
0.000329771
0.000330875
0.000331979
0.000333089
0.000334197
0.000335306
0.000336418
0.000337533
0.00033865
0.00033977
0.000340892
0.00034201
0.000343136
0.000344261
0.000345392
0.000346521
0.00034765
0.000348784
0.000349919
0.000351058
0.000352197
0.000353335
0.000354478
0.000355621
0.000356771
0.000357918
0.000359065
0.000360218
0.00036137
0.000362528
0.000363685
0.000364841
0.000366003
0.000367164
0.000368332
0.000369498
0.000370663
0.000371834
0.000373004
0.000374181
0.000375356
0.00037653
0.00037771
0.00037889
0.000380075
0.000381259
0.000382443
0.000383632
0.000384821
0.000386015
0.000387209
0.000388401
0.0003896
0.000390797
0.000392001
0.000393203
0.000394406
0.000395612
0.00039682
0.000398031
0.000399246
0.000400461
0.000401674
0.000402894
0.000404112
0.000405337
0.00040656
0.000407783
0.000409011
0.000410239
0.000411473
0.000412706
0.000413937
0.000415175
0.000416412
0.000417655
0.000418897
0.000420137
0.000421384
0.00042263
0.000423882
0.000425133
0.000426383
0.000427639
0.000428894
0.000430155
0.000431415
0.000432674
0.000433939
0.000435203
0.000436474
0.000437743
0.000439011
0.000440285
0.000441559
0.000442838
0.000444116
0.000445393
0.000446677
0.000447959
0.000449248
0.000450534
0.000451822
0.000453113
0.000454406
0.000455702
0.000457001
0.000458301
0.000459599
0.000460903
0.000462206
0.000463516
0.000464824
0.000466132
0.000467445
0.000468758
0.000470076
0.000471394
0.00047271
0.000474033
0.000475354
0.000476682
0.000478009
0.000479334
0.000480666
0.000481997
0.000483333
0.000484669
0.000486004
0.000487344
0.000488684
0.00049003
0.000491375
0.000492719
0.000494069
0.000495418
0.000496773
0.000498127
0.00049948
0.000500838
0.000502197
0.000503561
0.000504924
0.000506286
0.000507654
0.000509021
0.000510394
0.000511767
0.000513138
0.000514515
0.000515891
0.000517274
0.000518655
0.000520036
0.000521421
0.000522808
0.000524198
0.000525591
0.000526985
0.000528376
0.000529775
0.000531172
0.000532576
0.000533978
0.000535379
0.000536786
0.000538193
0.000539605
0.000541017
0.000542427
0.000543843
0.000545259
0.000546681
0.000548101
0.000549521
0.000550946
0.000552371
0.000553802
0.000555231
0.00055666
0.000558094
0.000559528
0.000560968
0.000562407
0.000563844
0.000565288
0.000566731
0.00056818
0.000569628
0.000571075
0.000572527
0.00057398
0.000575438
0.000576895
0.000578351
0.000579813
0.000581274
0.000582742
0.000584207
0.000585673
0.000587142
0.000588614
0.000590089
0.000591567
0.000593046
0.000594522
0.000596005
0.000597487
0.000598976
0.000600463
0.000601949
0.00060344
0.000604932
0.000606429
0.000607926
0.000609421
0.000610922
0.000612422
0.000613929
0.000615434
0.000616938
0.000618448
0.000619958
0.000621474
0.000622988
0.000624501
0.000626021
0.000627539
0.000629064
0.000630588
0.00063211
0.000633638
0.000635166
0.0006367
0.000638233
0.000639764
0.000641302
0.000642839
0.000644382
0.000645924
0.000647464
0.000649011
0.000650557
0.000652109
0.00065366
0.000655209
0.000656766
0.00065832
0.000659882
0.000661441
0.000663001
0.000664565
0.000666131
0.000667699
0.000669271
0.000670844
0.000672414
0.000673991
0.000675567
0.00067715
0.00067873
0.00068031
0.000681896
0.000683482
0.000685073
0.000686663
0.000688252
0.000689847
0.000691441
0.000693042
0.000694641
0.000696239
0.000697843
0.000699447
0.000701056
0.000702664
0.000704272
0.000705885
0.000707497
0.000709116
0.000710734
0.00071235
0.000713972
0.000715594
0.000717222
0.000718848
0.000720474
0.000722105
0.000723736
0.000725373
0.000727009
0.000728643
0.000730284
0.000731923
0.00073357
0.000735214
0.000736859
0.000738507
0.000740158
0.000741811
0.000743468
0.000745126
0.00074678
0.000748442
0.000750103
0.00075177
0.000753436
0.000755101
0.000756771
0.000758441
0.000760117
0.000761792
0.000763466
0.000765146
0.000766825
0.00076851
0.000770194
0.000771877
0.000773566
0.000775254
0.000776949
0.000778642
0.000780334
0.000782032
0.000783729
0.000785433
0.000787135
0.000788836
0.000790543
0.00079225
0.000793962
0.000795674
0.000797384
0.0007991
0.000800816
0.000802538
0.000804258
0.000805978
0.000807703
0.000809428
0.000811158
0.000812888
0.000814616
0.000816351
0.000818084
0.000819825
0.000821563
0.000823302
0.000825044
0.000826789
0.000828536
0.000830286
0.000832038
0.000833787
0.000835543
0.000837297
0.000839058
0.000840818
0.000842577
0.000844341
0.000846105
0.000847875
0.000849644
0.000851411
0.000853185
0.000854958
0.000856737
0.000858515
0.000860292
0.000862075
0.000863857
0.000865645
0.000867432
0.000869218
0.00087101
0.000872802
0.000874599
0.000876395
0.00087819
0.000879991
0.000881792
0.000883598
0.000885403
0.000887208
0.000889018
0.000890828
0.000892643
0.000894458
0.00089627
0.00089809
0.000899908
0.000901734
0.000903556
0.00090538
0.000907207
0.000909036
0.000910868
0.000912704
0.00091454
0.000916374
0.000918214
0.000920054
0.0009219
0.000923744
0.000925587
0.000927437
0.000929286
0.00093114
0.000932994
0.000934846
0.000936705
0.000938563
0.000940427
0.000942289
0.000944151
0.000946019
0.000947886
0.000949759
0.000951631
0.000953501
0.000955378
0.000957254
0.000959136
0.000961017
0.000962897
0.000964783
0.000966668
0.000968559
0.00097045
0.000972338
0.000974233
0.000976128
0.000978028
0.000979927
0.000981826
0.000983729
0.000985633
0.000987542
0.000989451
0.000991358
0.000993272
0.000995184
0.000997103
0.000999019
0.00100094
0.00100286
0.00100478
0.00100671
0.00100864
0.00101057
0.00101249
0.00101443
0.00101636
0.0010183
0.00102024
0.00102218
0.00102412
0.00102606
0.00102801
0.00102996
0.00103191
0.00103386
0.00103581
0.00103777
0.00103972
0.00104168
0.00104364
0.0010456
0.00104757
0.00104954
0.0010515
0.00105347
0.00105544
0.00105742
0.00105939
0.00106137
0.00106335
0.00106532
0.00106731
0.00106929
0.00107128
0.00107327
0.00107525
0.00107725
0.00107924
0.00108123
0.00108323
0.00108523
0.00108723
0.00108923
0.00109124
0.00109324
0.00109525
0.00109726
0.00109927
0.00110129
0.0011033
0.00110532
0.00110734
0.00110936
0.00111139
0.00111341
0.00111544
0.00111746
0.0011195
0.00112153
0.00112356
0.0011256
0.00112764
0.00112968
0.00113172
0.00113376
0.00113581
0.00113785
0.0011399
0.00114195
0.001144
0.00114606
0.00114811
0.00115017
0.00115223
0.00115429
0.00115636
0.00115842
0.00116049
0.00116256
0.00116463
0.0011667
0.00116877
0.00117085
0.00117293
0.00117501
0.00117709
0.00117917
0.00118126
0.00118335
0.00118543
0.00118753
0.00118962
0.00119172
0.00119381
0.00119591
0.00119801
0.00120011
0.00120221
0.00120432
0.00120643
0.00120854
0.00121065
0.00121276
0.00121488
0.001217
0.00121911
0.00122124
0.00122336
0.00122548
0.00122761
0.00122974
0.00123187
0.001234
0.00123613
0.00123827
0.0012404
0.00124254
0.00124468
0.00124683
0.00124897
0.00125112
0.00125327
0.00125541
0.00125757
0.00125972
0.00126188
0.00126403
0.00126619
0.00126836
0.00127052
0.00127268
0.00127485
0.00127701
0.00127919
0.00128136
0.00128353
0.00128571
0.00128788
0.00129007
0.00129225
0.00129443
0.00129661
0.0012988
0.00130099
0.00130318
0.00130537
0.00130756
0.00130976
0.00131196
0.00131416
0.00131636
0.00131857
0.00132077
0.00132298
0.00132519
0.0013274
0.00132961
0.00133183
0.00133404
0.00133626
0.00133848
0.0013407
0.00134293
0.00134515
0.00134738
0.00134961
0.00135184
0.00135407
0.00135631
0.00135855
0.00136079
0.00136302
0.00136527
0.00136751
0.00136976
0.00137201
0.00137425
0.0013765
0.00137876
0.00138101
0.00138327
0.00138553
0.00138779
0.00139005
0.00139232
0.00139458
0.00139685
0.00139912
0.00140139
0.00140366
0.00140594
0.00140821
0.00141049
0.00141277
0.00141505
0.00141734
0.00141963
0.00142191
0.00142421
0.0014265
0.00142879
0.00143109
0.00143338
0.00143568
0.00143798
0.00144029
0.0014426
0.0014449
0.00144721
0.00144952
0.00145183
0.00145415
0.00145646
0.00145878
0.0014611
0.00146342
0.00146575
0.00146807
0.0014704
0.00147272
0.00147506
0.00147739
0.00147972
0.00148206
0.00148439
0.00148674
0.00148908
0.00149142
0.00149376
0.00149611
0.00149846
0.00150081
0.00150316
0.00150552
0.00150787
0.00151023
0.00151259
0.00151495
0.00151732
0.00151968
0.00152205
0.00152442
0.00152679
0.00152916
0.00153154
0.00153391
0.0015363
0.00153868
0.00154106
0.00154344
0.00154583
0.00154822
0.00155061
0.001553
0.00155539
0.00155779
0.00156019
0.00156258
0.00156498
0.00156739
0.00156979
0.0015722
0.00157461
0.00157701
0.00157943
0.00158184
0.00158426
0.00158667
0.00158909
0.00159151
0.00159393
0.00159636
0.00159879
0.00160121
0.00160364
0.00160607
0.00160851
0.00161094
0.00161338
0.00161582
0.00161826
0.0016207
0.00162315
0.00162559
0.00162804
0.00163049
0.00163295
0.0016354
0.00163785
0.00164031
0.00164277
0.00164523
0.0016477
0.00165016
0.00165263
0.0016551
0.00165757
0.00166004
0.00166252
0.00166499
0.00166747
0.00166995
0.00167243
0.00167492
0.0016774
0.00167989
0.00168238
0.00168487
0.00168736
0.00168985
0.00169235
0.00169485
0.00169735
0.00169985
0.00170235
0.00170486
0.00170737
0.00170988
0.00171239
0.0017149
0.00171742
0.00171993
0.00172245
0.00172497
0.00172749
0.00173002
0.00173254
0.00173507
0.0017376
0.00174013
0.00174266
0.0017452
0.00174774
0.00175027
0.00175281
0.00175535
0.0017579
0.00176045
0.001763
0.00176555
0.0017681
0.00177065
0.0017732
0.00177577
0.00177832
0.00178088
0.00178345
0.00178601
0.00178858
0.00179115
0.00179372
0.00179629
0.00179886
0.00180144
0.00180402
0.0018066
0.00180918
0.00181176
0.00181435
0.00181693
0.00181952
0.00182211
0.0018247
0.0018273
0.0018299
0.00183249
0.00183509
0.00183769
0.0018403
0.0018429
0.00184551
0.00184812
0.00185072
0.00185334
0.00185595
0.00185857
0.00186119
0.0018638
0.00186643
0.00186905
0.00187167
0.0018743
0.00187693
0.00187956
0.00188219
0.00188483
0.00188746
0.0018901
0.00189274
0.00189539
0.00189803
0.00190067
0.00190332
0.00190597
0.00190862
0.00191128
0.00191393
0.00191659
0.00191925
0.00192191
0.00192457
0.00192723
0.0019299
0.00193257
0.00193524
0.00193791
0.00194058
0.00194326
0.00194593
0.00194862
0.0019513
0.00195398
0.00195666
0.00195935
0.00196204
0.00196473
0.00196741
0.00197011
0.0019728
0.0019755
0.0019782
0.0019809
0.0019836
0.00198631
0.00198902
0.00199172
0.00199443
0.00199714
0.00199986
0.00200257
0.00200529
0.00200801
0.00201073
0.00201345
0.00201618
0.00201891
0.00202164
0.00202436
0.0020271
0.00202983
0.00203257
0.00203531
0.00203804
0.00204079
0.00204353
0.00204628
0.00204903
0.00205177
0.00205452
0.00205727
0.00206003
0.00206279
0.00206554
0.0020683
0.00207107
0.00207383
0.0020766
0.00207936
0.00208213
0.0020849
0.00208768
0.00209045
0.00209323
0.002096
0.00209878
0.00210157
0.00210435
0.00210713
0.00210992
0.00211271
0.0021155
0.0021183
0.00212109
0.00212389
0.00212668
0.00212949
0.00213229
0.00213509
0.0021379
0.0021407
0.00214351
0.00214632
0.00214914
0.00215195
0.00215477
0.00215759
0.00216041
0.00216323
0.00216605
0.00216888
0.00217171
0.00217454
0.00217737
0.00218021
0.00218304
0.00218588
0.00218872
0.00219156
0.0021944
0.00219725
0.00220009
0.00220294
0.00220579
0.00220864
0.0022115
0.00221435
0.00221721
0.00222007
0.00222293
0.0022258
0.00222866
0.00223153
0.0022344
0.00223726
0.00224014
0.00224301
0.00224589
0.00224877
0.00225164
0.00225453
0.00225741
0.0022603
0.00226318
0.00226607
0.00226896
0.00227185
0.00227475
0.00227764
0.00228054
0.00228344
0.00228634
0.00228924
0.00229215
0.00229505
0.00229796
0.00230087
0.00230379
0.0023067
0.00230962
0.00231254
0.00231546
0.00231838
0.00232131
0.00232423
0.00232716
0.00233009
0.00233302
0.00233595
0.00233889
0.00234182
0.00234476
0.0023477
0.00235065
0.00235359
0.00235653
0.00235948
0.00236243
0.00236539
0.00236834
0.00237129
0.00237425
0.00237721
0.00238017
0.00238313
0.00238609
0.00238906
0.00239203
0.002395
0.00239797
0.00240094
0.00240392
0.00240689
0.00240988
0.00241286
0.00241584
0.00241882
0.00242181
0.0024248
0.00242779
0.00243078
0.00243377
0.00243676
0.00243976
0.00244276
0.00244577
0.00244877
0.00245177
0.00245478
0.00245779
0.0024608
0.00246381
0.00246683
0.00246984
0.00247286
0.00247588
0.0024789
0.00248193
0.00248495
0.00248798
0.00249101
0.00249404
0.00249707
0.0025001
0.00250314
0.00250618
0.00250922
0.00251226
0.0025153
0.00251835
0.0025214
0.00252444
0.0025275
0.00253055
0.0025336
0.00253666
0.00253972
0.00254278
0.00254584
0.0025489
0.00255197
0.00255503
0.0025581
0.00256117
0.00256425
0.00256732
0.0025704
0.00257348
0.00257656
0.00257964
0.00258272
0.00258581
0.00258889
0.00259198
0.00259508
0.00259817
0.00260127
0.00260436
0.00260746
0.00261056
0.00261367
0.00261677
0.00261988
0.00262298
0.00262609
0.00262921
0.00263232
0.00263544
0.00263855
0.00264167
0.0026448
0.00264792
0.00265104
0.00265417
0.00265729
0.00266043
0.00266356
0.00266669
0.00266983
0.00267296
0.00267611
0.00267925
0.00268239
0.00268553
0.00268868
0.00269183
0.00269498
0.00269813
0.00270128
0.00270444
0.0027076
0.00271076
0.00271392
0.00271708
0.00272024
0.00272341
0.00272658
0.00272975
0.00273292
0.0027361
0.00273927
0.00274245
0.00274563
0.00274881
0.002752
0.00275518
0.00275837
0.00276156
0.00276475
0.00276795
0.00277114
0.00277434
0.00277754
0.00278073
0.00278394
0.00278714
0.00279035
0.00279356
0.00279676
0.00279998
0.00280319
0.00280641
0.00280962
0.00281284
0.00281606
0.00281928
0.00282251
0.00282573
0.00282896
0.00283219
0.00283542
0.00283866
0.00284189
0.00284512
0.00284836
0.0028516
0.00285485
0.00285809
0.00286134
0.00286458
0.00286783
0.00287109
0.00287434
0.00287759
0.00288085
0.00288411
0.00288737
0.00289063
0.0028939
0.00289716
0.00290043
0.0029037
0.00290697
0.00291025
0.00291352
0.0029168
0.00292008
0.00292336
0.00292665
0.00292993
0.00293322
0.00293651
0.0029398
0.00294309
0.00294638
0.00294968
0.00295298
0.00295628
0.00295958
0.00296288
0.00296619
0.00296949
0.00297281
0.00297612
0.00297943
0.00298274
0.00298606
0.00298938
0.0029927
0.00299602
0.00299934
0.00300266
0.00300599
0.00300932
0.00301265
0.00301598
0.00301932
0.00302266
0.003026
0.00302933
0.00303268
0.00303602
0.00303937
0.00304271
0.00304606
0.00304941
0.00305276
0.00305612
0.00305948
0.00306284
0.00306619
0.00306956
0.00307292
0.00307629
0.00307966
0.00308303
0.0030864
0.00308977
0.00309315
0.00309653
0.0030999
0.00310329
0.00310667
0.00311005
0.00311344
0.00311683
0.00312022
0.00312361
0.003127
0.0031304
0.00313379
0.00313719
0.00314059
0.003144
0.0031474
0.00315081
0.00315422
0.00315763
0.00316104
0.00316445
0.00316787
0.00317129
0.0031747
0.00317813
0.00318155
0.00318497
0.0031884
0.00319183
0.00319526
0.00319869
0.00320212
0.00320556
0.003209
0.00321244
0.00321588
0.00321932
0.00322276
0.00322621
0.00322966
0.00323311
0.00323657
0.00324002
0.00324348
0.00324693
0.0032504
0.00325386
0.00325732
0.00326079
0.00326425
0.00326772
0.0032712
0.00327467
0.00327814
0.00328162
0.0032851
0.00328858
0.00329206
0.00329554
0.00329903
0.00330252
0.00330601
0.0033095
0.00331299
0.00331648
0.00331998
0.00332348
0.00332698
0.00333048
0.00333399
0.00333749
0.003341
0.00334451
0.00334802
0.00335153
0.00335505
0.00335857
0.00336208
0.0033656
0.00336912
0.00337265
0.00337618
0.0033797
0.00338323
0.00338676
0.0033903
0.00339384
0.00339738
0.00340091
0.00340445
0.003408
0.00341154
0.00341509
0.00341864
0.00342219
0.00342574
0.0034293
0.00343285
0.00343641
0.00343997
0.00344353
0.00344709
0.00345066
0.00345422
0.00345779
0.00346136
0.00346494
0.00346851
0.00347208
0.00347566
0.00347924
0.00348283
0.00348641
0.00348999
0.00349358
0.00349717
0.00350076
0.00350435
0.00350794
0.00351154
0.00351514
0.00351874
0.00352234
0.00352594
0.00352955
0.00353316
0.00353677
0.00354038
0.00354399
0.0035476
0.00355122
0.00355484
0.00355846
0.00356208
0.0035657
0.00356933
0.00357295
0.00357659
0.00358022
0.00358385
0.00358749
0.00359112
0.00359476
0.0035984
0.00360204
0.00360569
0.00360933
0.00361298
0.00361663
0.00362028
0.00362394
0.00362759
0.00363125
0.00363491
0.00363857
0.00364223
0.0036459
0.00364957
0.00365323
0.0036569
0.00366057
0.00366425
0.00366792
0.0036716
0.00367528
0.00367896
0.00368264
0.00368633
0.00369001
0.0036937
0.00369739
0.00370108
0.00370478
0.00370847
0.00371217
0.00371587
0.00371957
0.00372327
0.00372698
0.00373068
0.00373439
0.0037381
0.00374181
0.00374553
0.00374925
0.00375296
0.00375668
0.0037604
0.00376413
0.00376786
0.00377158
0.00377531
0.00377904
0.00378278
0.00378651
0.00379024
0.00379398
0.00379772
0.00380147
0.00380521
0.00380895
0.0038127
0.00381645
0.00382021
0.00382396
0.00382771
0.00383147
0.00383522
0.00383899
0.00384275
0.00384651
0.00385028
0.00385404
0.00385782
0.00386159
0.00386536
0.00386913
0.00387291
0.00387669
0.00388047
0.00388425
0.00388803
0.00389182
0.00389561
0.0038994
0.00390319
0.00390698
0.00391077
0.00391457
0.00391837
0.00392217
0.00392597
0.00392978
0.00393358
0.00393739
0.00394121
0.00394501
0.00394883
0.00395264
0.00395646
0.00396028
0.0039641
0.00396793
0.00397175
0.00397558
0.00397941
0.00398324
0.00398707
0.0039909
0.00399474
0.00399858
0.00400242
0.00400626
0.0040101
0.00401395
0.00401779
0.00402164
0.00402549
0.00402934
0.0040332
0.00403706
0.00404091
0.00404477
0.00404863
0.0040525
0.00405636
0.00406023
0.0040641
0.00406797
0.00407184
0.00407572
0.00407959
0.00408347
0.00408735
0.00409123
0.00409511
0.004099
0.00410288
0.00410677
0.00411066
0.00411456
0.00411845
0.00412235
0.00412625
0.00413015
0.00413405
0.00413796
0.00414186
0.00414577
0.00414968
0.00415359
0.00415751
0.00416142
0.00416534
0.00416925
0.00417318
0.0041771
0.00418102
0.00418495
0.00418888
0.00419281
0.00419674
0.00420067
0.00420461
0.00420854
0.00421248
0.00421642
0.00422036
0.00422431
0.00422826
0.00423221
0.00423616
0.0042401
0.00424406
0.00424801
0.00425197
0.00425593
0.00425989
0.00426385
0.00426782
0.00427179
0.00427575
0.00427972
0.00428369
0.00428767
0.00429165
0.00429562
0.0042996
0.00430358
0.00430756
0.00431155
0.00431554
0.00431953
0.00432351
0.00432751
0.0043315
0.0043355
0.0043395
0.0043435
0.0043475
0.0043515
0.00435551
0.00435952
0.00436352
0.00436754
0.00437155
0.00437556
0.00437958
0.0043836
0.00438762
0.00439164
0.00439566
0.00439969
0.00440371
0.00440774
0.00441177
0.00441581
0.00441984
0.00442388
0.00442792
0.00443196
0.004436
0.00444005
0.00444409
0.00444814
0.00445218
0.00445624
0.00446029
0.00446434
0.0044684
0.00447246
0.00447652
0.00448058
0.00448464
0.00448871
0.00449278
0.00449685
0.00450092
0.004505
0.00450907
0.00451315
0.00451723
0.00452131
0.00452539
0.00452947
0.00453356
0.00453765
0.00454174
0.00454584
0.00454993
0.00455402
0.00455812
0.00456222
0.00456632
0.00457042
0.00457453
0.00457863
0.00458275
0.00458686
0.00459096
0.00459508
0.00459919
0.00460332
0.00460743
0.00461155
0.00461568
0.0046198
0.00462393
0.00462806
0.00463219
0.00463632
0.00464045
0.00464459
0.00464873
0.00465287
0.00465701
0.00466115
0.0046653
0.00466944
0.00467359
0.00467774
0.00468189
0.00468605
0.00469021
0.00469436
0.00469852
0.00470268
0.00470685
0.00471101
0.00471518
0.00471935
0.00472352
0.00472769
0.00473187
0.00473605
0.00474022
0.00474441
0.00474859
0.00475277
0.00475696
0.00476115
0.00476534
0.00476953
0.00477372
0.00477792
0.00478211
0.00478631
0.00479051
0.00479472
0.00479892
0.00480312
0.00480733
0.00481154
0.00481576
0.00481997
0.00482418
0.0048284
0.00483262
0.00483684
0.00484106
0.00484528
0.00484951
0.00485374
0.00485797
0.0048622
0.00486643
0.00487067
0.0048749
0.00487915
0.00488339
0.00488763
0.00489187
0.00489612
0.00490037
0.00490462
0.00490887
0.00491312
0.00491738
0.00492164
0.0049259
0.00493016
0.00493442
0.00493869
0.00494296
0.00494723
0.0049515
0.00495577
0.00496004
0.00496432
0.0049686
0.00497288
0.00497716
0.00498144
0.00498573
0.00499002
0.00499431
0.00499859
0.00500289
0.00500718
0.00501148
0.00501578
0.00502008
0.00502438
0.00502868
0.00503299
0.0050373
0.0050416
0.00504592
0.00505023
0.00505454
0.00505886
0.00506318
0.0050675
0.00507182
0.00507614
0.00508047
0.00508479
0.00508912
0.00509345
0.00509779
0.00510212
0.00510646
0.0051108
0.00511514
0.00511948
0.00512383
0.00512817
0.00513252
0.00513687
0.00514122
0.00514558
0.00514993
0.00515429
0.00515865
0.00516301
0.00516737
0.00517174
0.0051761
0.00518047
0.00518484
0.00518922
0.00519359
0.00519796
0.00520234
0.00520672
0.0052111
0.00521549
0.00521987
0.00522426
0.00522864
0.00523304
0.00523743
0.00524182
0.00524622
0.00525061
0.00525501
0.00525942
0.00526382
0.00526822
0.00527263
0.00527704
0.00528145
0.00528586
0.00529027
0.00529469
0.00529911
0.00530353
0.00530795
0.00531237
0.00531679
0.00532122
0.00532565
0.00533009
0.00533451
0.00533895
0.00534339
0.00534783
0.00535227
0.00535671
0.00536115
0.0053656
0.00537005
0.0053745
0.00537895
0.0053834
0.00538785
0.00539231
0.00539677
0.00540123
0.00540569
0.00541016
0.00541462
0.00541909
0.00542356
0.00542803
0.0054325
0.00543698
0.00544146
0.00544593
0.00545042
0.0054549
0.00545938
0.00546387
0.00546835
0.00547285
0.00547734
0.00548183
0.00548633
0.00549082
0.00549532
0.00549982
0.00550433
0.00550883
0.00551333
0.00551784
0.00552235
0.00552687
0.00553138
0.00553589
0.00554041
0.00554493
0.00554945
0.00555397
0.0055585
0.00556302
0.00556755
0.00557208
0.00557662
0.00558115
0.00558569
0.00559022
0.00559476
0.00559931
0.00560385
0.00560839
0.00561294
0.00561749
0.00562204
0.0056266
0.00563115
0.0056357
0.00564026
0.00564482
0.00564939
0.00565395
0.00565851
0.00566308
0.00566765
0.00567222
0.00567679
0.00568137
0.00568594
0.00569052
0.0056951
0.00569968
0.00570427
0.00570885
0.00571344
0.00571803
0.00572262
0.00572721
0.0057318
0.0057364
0.005741
0.0057456
0.0057502
0.0057548
0.00575941
0.00576402
0.00576863
0.00577324
0.00577786
0.00578247
0.00578709
0.00579171
0.00579633
0.00580095
0.00580557
0.0058102
0.00581483
0.00581946
0.00582409
0.00582872
0.00583336
0.005838
0.00584264
0.00584728
0.00585192
0.00585657
0.00586121
0.00586586
0.00587051
0.00587516
0.00587982
0.00588447
0.00588913
0.00589379
0.00589845
0.00590311
0.00590778
0.00591244
0.00591711
0.00592178
0.00592645
0.00593113
0.0059358
0.00594048
0.00594516
0.00594984
0.00595452
0.00595921
0.00596389
0.00596858
0.00597327
0.00597797
0.00598266
0.00598736
0.00599206
0.00599676
0.00600146
0.00600616
0.00601087
0.00601558
0.00602028
0.006025
0.00602971
0.00603442
0.00603914
0.00604386
0.00604858
0.0060533
0.00605802
0.00606275
0.00606748
0.00607221
0.00607694
0.00608167
0.00608641
0.00609114
0.00609588
0.00610062
0.00610536
0.00611011
0.00611485
0.0061196