/*--------------------------------*- C++ -*----------------------------------*\
| =========                 |                                                 |
| \\      /  F ield         | OpenFOAM: The Open Source CFD Toolbox           |
|  \\    /   O peration     | Version:  2206                                  |
|   \\  /    A nd           | Website:  www.openfoam.com                      |
|    \\/     M anipulation  |                                                 |
\*---------------------------------------------------------------------------*/
FoamFile
{
    version     2.0;
    format      ascii;
    arch        "LSB;label=32;scalar=64";
    class       volVectorField;
    location    "240";
    object      U;
}
// * * * * * * * * * * * * * * * * * * * * * * * * * * * * * * * * * * * * * //

dimensions      [0 1 -1 0 0 0 0];

internalField   nonuniform List<vector> 
100000
(
(-7.06039e-12 6.33086e-06 -1.85872e-12)
(-6.06875e-12 1.16827e-05 4.50039e-15)
(-8.99101e-12 2.1337e-05 1.46638e-13)
(-1.41655e-11 3.17102e-05 1.63503e-13)
(-1.76254e-11 4.11313e-05 7.84569e-14)
(-1.69693e-11 4.34457e-05 6.96117e-14)
(-2.03639e-11 5.30749e-05 1.37691e-13)
(-2.57749e-11 6.35746e-05 1.4675e-13)
(-3.06234e-11 7.40586e-05 1.46013e-13)
(-3.51354e-11 8.35608e-05 8.2189e-14)
(-3.31803e-11 8.58126e-05 7.65982e-14)
(-3.75238e-11 9.54174e-05 1.40266e-13)
(-4.25878e-11 0.000105921 1.44988e-13)
(-4.77655e-11 0.000116413 1.44831e-13)
(-5.20663e-11 0.000125938 8.13541e-14)
(-5.01902e-11 0.000128178 7.67655e-14)
(-5.46658e-11 0.000137771 1.41094e-13)
(-5.94695e-11 0.000148275 1.44753e-13)
(-6.50621e-11 0.000158771 1.44416e-13)
(-6.87766e-11 0.000168306 8.02767e-14)
(-6.76939e-11 0.000170542 7.78221e-14)
(-7.11293e-11 0.000180129 1.40842e-13)
(-7.72576e-11 0.000190638 1.46203e-13)
(-8.1293e-11 0.000201216 1.47862e-13)
(-8.74525e-11 0.000211718 1.44661e-13)
(-9.09054e-11 0.00022126 8.14823e-14)
(-8.97709e-11 0.000223494 7.81016e-14)
(-9.34797e-11 0.000233076 1.43196e-13)
(-9.90868e-11 0.000243579 1.45968e-13)
(-1.03879e-10 0.000254077 1.45034e-13)
(-1.08454e-10 0.000263623 8.04381e-14)
(-1.06398e-10 0.000265856 7.87604e-14)
(-1.10873e-10 0.000275435 1.42665e-13)
(-1.15846e-10 0.000285938 1.46193e-13)
(-1.21156e-10 0.000296437 1.44369e-13)
(-1.25301e-10 0.000305985 8.04907e-14)
(-1.23604e-10 0.000308218 7.85624e-14)
(-1.27787e-10 0.000317794 1.42846e-13)
(-1.32998e-10 0.000328297 1.45875e-13)
(-1.3811e-10 0.000338796 1.44283e-13)
(-1.42413e-10 0.000348346 8.01805e-14)
(-1.40591e-10 0.000350579 7.87102e-14)
(-1.44879e-10 0.000360154 1.42729e-13)
(-1.50005e-10 0.000370657 1.45849e-13)
(-1.55182e-10 0.000381156 1.44026e-13)
(-1.59432e-10 0.000390708 8.0103e-14)
(-1.57653e-10 0.00039294 7.8682e-14)
(-1.61911e-10 0.000402513 1.42763e-13)
(-1.67057e-10 0.000413016 1.45714e-13)
(-1.72221e-10 0.000423516 1.43924e-13)
(-1.76474e-10 0.000433068 7.99467e-14)
(-1.74703e-10 0.0004353 7.87469e-14)
(-1.78947e-10 0.000444873 1.42707e-13)
(-1.84115e-10 0.000455376 1.45687e-13)
(-1.89247e-10 0.000465875 1.43758e-13)
(-1.9354e-10 0.000475429 7.99025e-14)
(-1.91719e-10 0.000477661 7.87122e-14)
(-1.96029e-10 0.000487233 1.42755e-13)
(-2.01114e-10 0.000497735 1.4556e-13)
(-2.06345e-10 0.000508235 1.43735e-13)
(-2.10516e-10 0.00051779 7.97348e-14)
(-2.08845e-10 0.000520022 7.8833e-14)
(-2.12975e-10 0.000529593 1.42621e-13)
(-2.18278e-10 0.000540095 1.45657e-13)
(-2.23245e-10 0.000550595 1.43478e-13)
(-2.27734e-10 0.00056015 7.98744e-14)
(-2.2568e-10 0.000562382 7.86017e-14)
(-2.30273e-10 0.000571953 1.42905e-13)
(-2.35018e-10 0.000582455 1.45266e-13)
(-2.40656e-10 0.000592955 1.43822e-13)
(-2.44336e-10 0.000602511 7.9319e-14)
(-2.43256e-10 0.000604742 7.92147e-14)
(-2.4668e-10 0.000614313 1.4221e-13)
(-2.52834e-10 0.00062482 1.46745e-13)
(-2.56856e-10 0.000635399 1.47239e-13)
(-2.63016e-10 0.000645905 1.43416e-13)
(-2.66452e-10 0.000655461 8.03234e-14)
(-2.65345e-10 0.000657693 7.86825e-14)
(-2.6904e-10 0.000667262 1.43442e-13)
(-2.74661e-10 0.000677765 1.45642e-13)
(-2.79432e-10 0.000688265 1.4405e-13)
(-2.84015e-10 0.000697822 7.96448e-14)
(-2.8196e-10 0.000700053 7.91868e-14)
(-2.86442e-10 0.000709622 1.42986e-13)
(-2.9141e-10 0.000720125 1.45937e-13)
(-2.9672e-10 0.000730625 1.43688e-13)
(-3.00857e-10 0.000740182 7.98321e-14)
(-2.99173e-10 0.000742414 7.89848e-14)
(-3.03348e-10 0.000751982 1.43119e-13)
(-3.08571e-10 0.000762485 1.45757e-13)
(-3.13668e-10 0.000772985 1.43731e-13)
(-3.17981e-10 0.000782543 7.96995e-14)
(-3.1615e-10 0.000784774 7.90496e-14)
(-3.20451e-10 0.000794342 1.43037e-13)
(-3.25566e-10 0.000804844 1.45757e-13)
(-3.30755e-10 0.000815345 1.43641e-13)
(-3.34986e-10 0.000824903 7.96812e-14)
(-3.33231e-10 0.000827134 7.90313e-14)
(-3.37462e-10 0.000836702 1.4302e-13)
(-3.42644e-10 0.000847204 1.45721e-13)
(-3.47765e-10 0.000857705 1.43578e-13)
(-3.52067e-10 0.000867263 7.96632e-14)
(-3.50237e-10 0.000869494 7.89998e-14)
(-3.54552e-10 0.000879062 1.43035e-13)
(-3.59638e-10 0.000889564 1.45638e-13)
(-3.6487e-10 0.000900065 1.43591e-13)
(-3.6904e-10 0.000909623 7.95556e-14)
(-3.67367e-10 0.000911855 7.90874e-14)
(-3.71497e-10 0.000921422 1.42905e-13)
(-3.76803e-10 0.000931924 1.45741e-13)
(-3.8177e-10 0.000942425 1.43384e-13)
(-3.86258e-10 0.000951984 7.97228e-14)
(-3.84203e-10 0.000954215 7.88461e-14)
(-3.88794e-10 0.000963782 1.43174e-13)
(-3.93545e-10 0.000974284 1.45368e-13)
(-3.99179e-10 0.000984785 1.43759e-13)
(-4.02863e-10 0.000994344 7.91974e-14)
(-4.01777e-10 0.000996575 7.9445e-14)
(-4.05204e-10 0.00100614 1.42468e-13)
(-4.11359e-10 0.00101665 1.46858e-13)
(-4.15381e-10 0.00102723 1.47165e-13)
(-4.2154e-10 0.00103773 1.43209e-13)
(-4.24975e-10 0.00104729 8.01308e-14)
(-4.23871e-10 0.00104953 7.88024e-14)
(-4.27565e-10 0.00105909 1.43527e-13)
(-4.33188e-10 0.00106959 1.45595e-13)
(-4.37956e-10 0.0010801 1.43879e-13)
(-4.4254e-10 0.00108965 7.9482e-14)
(-4.40485e-10 0.00109189 7.93047e-14)
(-4.44968e-10 0.00110145 1.43078e-13)
(-4.49937e-10 0.00111195 1.45914e-13)
(-4.55245e-10 0.00112246 1.43546e-13)
(-4.59382e-10 0.00113201 7.9697e-14)
(-4.57698e-10 0.00113425 7.90959e-14)
(-4.61875e-10 0.00114381 1.43222e-13)
(-4.67096e-10 0.00115431 1.45745e-13)
(-4.72196e-10 0.00116482 1.43623e-13)
(-4.76503e-10 0.00117437 7.95766e-14)
(-4.7468e-10 0.00117661 7.91678e-14)
(-4.78971e-10 0.00118617 1.43135e-13)
(-4.841e-10 0.00119667 1.45772e-13)
(-4.89274e-10 0.00120718 1.4354e-13)
(-4.93522e-10 0.00121673 7.95936e-14)
(-4.91746e-10 0.00121897 7.91259e-14)
(-4.96002e-10 0.00122853 1.43146e-13)
(-5.01154e-10 0.00123903 1.45717e-13)
(-5.06313e-10 0.00124954 1.43534e-13)
(-5.10568e-10 0.0012591 7.95468e-14)
(-5.08794e-10 0.00126133 7.91444e-14)
(-5.1304e-10 0.00127089 1.43102e-13)
(-5.18211e-10 0.00128139 1.4572e-13)
(-5.23341e-10 0.0012919 1.43472e-13)
(-5.27634e-10 0.00130146 7.95618e-14)
(-5.25811e-10 0.00130369 7.90977e-14)
(-5.30121e-10 0.00131325 1.43133e-13)
(-5.35213e-10 0.00132375 1.45641e-13)
(-5.40439e-10 0.00133426 1.4351e-13)
(-5.44613e-10 0.00134382 7.94631e-14)
(-5.42936e-10 0.00134605 7.91874e-14)
(-5.47069e-10 0.00135561 1.43002e-13)
(-5.52375e-10 0.00136611 1.45757e-13)
(-5.57343e-10 0.00137662 1.43318e-13)
(-5.61829e-10 0.00138618 7.96442e-14)
(-5.59775e-10 0.00138841 7.89429e-14)
(-5.64364e-10 0.00139797 1.43275e-13)
(-5.69119e-10 0.00140847 1.4539e-13)
(-5.7475e-10 0.00141898 1.43708e-13)
(-5.78437e-10 0.00142854 7.91277e-14)
(-5.77347e-10 0.00143077 7.95424e-14)
(-5.80776e-10 0.00144033 1.42568e-13)
(-5.86931e-10 0.00145084 1.4689e-13)
(-5.90954e-10 0.00146142 1.47106e-13)
(-5.97112e-10 0.00147193 1.43087e-13)
(-6.00546e-10 0.00148149 8.00241e-14)
(-5.99445e-10 0.00148372 7.88507e-14)
(-6.03137e-10 0.00149328 1.43546e-13)
(-6.08762e-10 0.00150378 1.45551e-13)
(-6.13527e-10 0.00151429 1.4377e-13)
(-6.18113e-10 0.00152385 7.93894e-14)
(-6.16057e-10 0.00152608 7.9352e-14)
(-6.20541e-10 0.00153564 1.43106e-13)
(-6.25509e-10 0.00154615 1.45878e-13)
(-6.30818e-10 0.00155665 1.43453e-13)
(-6.34953e-10 0.00156621 7.96124e-14)
(-6.33272e-10 0.00156844 7.91465e-14)
(-6.37446e-10 0.001578 1.43252e-13)
(-6.42671e-10 0.00158851 1.45722e-13)
(-6.47765e-10 0.00159901 1.43539e-13)
(-6.52079e-10 0.00160857 7.95065e-14)
(-6.50249e-10 0.0016108 7.92124e-14)
(-6.54549e-10 0.00162036 1.43178e-13)
(-6.59666e-10 0.00163087 1.45747e-13)
(-6.64854e-10 0.00164137 1.4348e-13)
(-6.69085e-10 0.00165093 7.9516e-14)
(-6.6733e-10 0.00165316 7.91901e-14)
(-6.71561e-10 0.00166272 1.43171e-13)
(-6.76745e-10 0.00167323 1.45728e-13)
(-6.81864e-10 0.00168373 1.4345e-13)
(-6.86166e-10 0.00169329 7.95182e-14)
(-6.84336e-10 0.00169552 7.91585e-14)
(-6.88651e-10 0.00170508 1.43191e-13)
(-6.93739e-10 0.00171559 1.45664e-13)
(-6.98969e-10 0.00172609 1.43487e-13)
(-7.0314e-10 0.00173565 7.94314e-14)
(-7.01465e-10 0.00173788 7.92428e-14)
(-7.05596e-10 0.00174744 1.43067e-13)
(-7.10904e-10 0.00175795 1.45781e-13)
(-7.1587e-10 0.00176845 1.43303e-13)
(-7.20358e-10 0.00177801 7.96153e-14)
(-7.18302e-10 0.00178024 7.89995e-14)
(-7.22892e-10 0.0017898 1.43341e-13)
(-7.27647e-10 0.00180031 1.45418e-13)
(-7.33278e-10 0.00181081 1.437e-13)
(-7.36965e-10 0.00182037 7.91025e-14)
(-7.35874e-10 0.0018226 7.95998e-14)
(-7.39303e-10 0.00183216 1.42633e-13)
(-7.45459e-10 0.00184267 1.46923e-13)
(-7.49482e-10 0.00185325 1.47093e-13)
(-7.5564e-10 0.00186376 1.43042e-13)
(-7.59073e-10 0.00187332 7.99795e-14)
(-7.57973e-10 0.00187555 7.88839e-14)
(-7.61665e-10 0.00188511 1.43572e-13)
(-7.6729e-10 0.00189562 1.45544e-13)
(-7.72055e-10 0.00190612 1.4373e-13)
(-7.7664e-10 0.00191568 7.93501e-14)
(-7.74585e-10 0.00191791 7.93857e-14)
(-7.79069e-10 0.00192747 1.43134e-13)
(-7.84038e-10 0.00193798 1.45876e-13)
(-7.89345e-10 0.00194848 1.43419e-13)
(-7.93482e-10 0.00195804 7.95791e-14)
(-7.91799e-10 0.00196027 7.91787e-14)
(-7.95975e-10 0.00196983 1.43287e-13)
(-8.01198e-10 0.00198034 1.45721e-13)
(-8.06296e-10 0.00199084 1.43515e-13)
(-8.10604e-10 0.0020004 7.94714e-14)
(-8.08781e-10 0.00200263 7.92522e-14)
(-8.13072e-10 0.00201219 1.43206e-13)
(-8.18201e-10 0.0020227 1.45761e-13)
(-8.23374e-10 0.0020332 1.43449e-13)
(-8.27622e-10 0.00204276 7.95002e-14)
(-8.25846e-10 0.00204499 7.92112e-14)
(-8.30103e-10 0.00205455 1.43224e-13)
(-8.35256e-10 0.00206506 1.45717e-13)
(-8.40413e-10 0.00207556 1.43457e-13)
(-8.44669e-10 0.00208512 7.9464e-14)
(-8.42894e-10 0.00208735 7.92307e-14)
(-8.47141e-10 0.00209691 1.43186e-13)
(-8.52312e-10 0.00210742 1.4573e-13)
(-8.57442e-10 0.00211792 1.43409e-13)
(-8.61735e-10 0.00212748 7.94884e-14)
(-8.59912e-10 0.00212971 7.91846e-14)
(-8.64221e-10 0.00213927 1.43221e-13)
(-8.69315e-10 0.00214978 1.45659e-13)
(-8.7454e-10 0.00216028 1.43459e-13)
(-8.78715e-10 0.00216984 7.93985e-14)
(-8.77037e-10 0.00217207 7.92748e-14)
(-8.8117e-10 0.00218163 1.43095e-13)
(-8.86476e-10 0.00219214 1.45783e-13)
(-8.91444e-10 0.00220264 1.43278e-13)
(-8.9593e-10 0.0022122 7.95878e-14)
(-8.93876e-10 0.00221443 7.90302e-14)
(-8.98465e-10 0.00222399 1.43372e-13)
(-9.03221e-10 0.0022345 1.45423e-13)
(-9.08851e-10 0.002245 1.43679e-13)
(-9.12539e-10 0.00225456 7.90768e-14)
(-9.11447e-10 0.00225679 7.96321e-14)
(-9.14877e-10 0.00226636 1.42665e-13)
(-9.21032e-10 0.00227686 1.46931e-13)
(-9.25056e-10 0.00228744 1.47069e-13)
(-9.31213e-10 0.00229795 1.42996e-13)
(-9.34646e-10 0.00230751 7.99398e-14)
(-9.33547e-10 0.00230974 7.88998e-14)
(-9.37238e-10 0.0023193 1.43576e-13)
(-9.42864e-10 0.00232981 1.45525e-13)
(-9.47627e-10 0.00234031 1.43688e-13)
(-9.52214e-10 0.00234987 7.93148e-14)
(-9.50158e-10 0.0023521 7.94015e-14)
(-9.54643e-10 0.00236167 1.43142e-13)
(-9.59611e-10 0.00237217 1.4586e-13)
(-9.64919e-10 0.00238267 1.43382e-13)
(-9.69054e-10 0.00239223 7.9545e-14)
(-9.67374e-10 0.00239446 7.91975e-14)
(-9.71547e-10 0.00240403 1.43294e-13)
(-9.76773e-10 0.00241453 1.45711e-13)
(-9.81866e-10 0.00242503 1.43478e-13)
(-9.8618e-10 0.00243459 7.94453e-14)
(-9.8435e-10 0.00243682 7.92653e-14)
(-9.88651e-10 0.00244639 1.43224e-13)
(-9.93768e-10 0.00245689 1.45744e-13)
(-9.98955e-10 0.00246739 1.43428e-13)
(-1.00319e-09 0.00247695 7.94615e-14)
(-1.00143e-09 0.00247918 7.92436e-14)
(-1.00566e-09 0.00248875 1.43222e-13)
(-1.01085e-09 0.00249925 1.45731e-13)
(-1.01597e-09 0.00250975 1.43406e-13)
(-1.02027e-09 0.00251931 7.94688e-14)
(-1.01844e-09 0.00252154 7.92138e-14)
(-1.02275e-09 0.00253111 1.43246e-13)
(-1.02784e-09 0.00254161 1.45673e-13)
(-1.03307e-09 0.00255211 1.4345e-13)
(-1.03724e-09 0.00256167 7.93878e-14)
(-1.03557e-09 0.0025639 7.92985e-14)
(-1.0397e-09 0.00257347 1.43125e-13)
(-1.04501e-09 0.00258397 1.45795e-13)
(-1.04997e-09 0.00259447 1.43274e-13)
(-1.05446e-09 0.00260403 7.95762e-14)
(-1.0524e-09 0.00260626 7.90562e-14)
(-1.05699e-09 0.00261583 1.43402e-13)
(-1.06175e-09 0.00262633 1.45438e-13)
(-1.06738e-09 0.00263683 1.43678e-13)
(-1.07107e-09 0.00264639 7.90673e-14)
(-1.06998e-09 0.00264862 7.96582e-14)
(-1.07341e-09 0.00265819 1.42696e-13)
(-1.07956e-09 0.00266869 1.46947e-13)
(-1.08358e-09 0.00267927 1.47065e-13)
(-1.08974e-09 0.00268978 1.42978e-13)
(-1.09317e-09 0.00269934 7.99215e-14)
(-1.09208e-09 0.00270157 7.89155e-14)
(-1.09577e-09 0.00271114 1.4359e-13)
(-1.10139e-09 0.00272164 1.45523e-13)
(-1.10616e-09 0.00273214 1.43672e-13)
(-1.11074e-09 0.0027417 7.92978e-14)
(-1.10869e-09 0.00274393 7.94185e-14)
(-1.11317e-09 0.0027535 1.43157e-13)
(-1.11814e-09 0.002764 1.45862e-13)
(-1.12345e-09 0.0027745 1.43368e-13)
(-1.12758e-09 0.00278406 7.95318e-14)
(-1.1259e-09 0.00278629 7.92123e-14)
(-1.13008e-09 0.00279586 1.43314e-13)
(-1.1353e-09 0.00280636 1.45711e-13)
(-1.1404e-09 0.00281686 1.4347e-13)
(-1.14471e-09 0.00282642 7.94276e-14)
(-1.14288e-09 0.00282865 7.92879e-14)
(-1.14717e-09 0.00283822 1.43236e-13)
(-1.1523e-09 0.00284872 1.45756e-13)
(-1.15748e-09 0.00285922 1.4341e-13)
(-1.16172e-09 0.00286878 7.94612e-14)
(-1.15995e-09 0.00287101 7.92473e-14)
(-1.1642e-09 0.00288058 1.43258e-13)
(-1.16936e-09 0.00289108 1.45717e-13)
(-1.17452e-09 0.00290158 1.43424e-13)
(-1.17877e-09 0.00291114 7.94279e-14)
(-1.177e-09 0.00291337 7.92686e-14)
(-1.18124e-09 0.00292294 1.43222e-13)
(-1.18641e-09 0.00293344 1.45734e-13)
(-1.19154e-09 0.00294394 1.43381e-13)
(-1.19584e-09 0.0029535 7.94567e-14)
(-1.19401e-09 0.00295573 7.92228e-14)
(-1.19832e-09 0.0029653 1.43261e-13)
(-1.20342e-09 0.0029758 1.45667e-13)
(-1.20864e-09 0.0029863 1.43437e-13)
(-1.21282e-09 0.00299586 7.93692e-14)
(-1.21114e-09 0.00299809 7.93147e-14)
(-1.21527e-09 0.00300766 1.43136e-13)
(-1.22058e-09 0.00301816 1.45795e-13)
(-1.22555e-09 0.00302866 1.43259e-13)
(-1.23003e-09 0.00303822 7.95626e-14)
(-1.22798e-09 0.00304045 7.90698e-14)
(-1.23257e-09 0.00305002 1.43417e-13)
(-1.23732e-09 0.00306052 1.45437e-13)
(-1.24295e-09 0.00307102 1.43667e-13)
(-1.24664e-09 0.00308058 7.90528e-14)
(-1.24555e-09 0.00308281 7.96745e-14)
(-1.24898e-09 0.00309238 1.4271e-13)
(-1.25513e-09 0.00310288 1.46951e-13)
(-1.25916e-09 0.00311346 1.47051e-13)
(-1.26531e-09 0.00312397 1.42954e-13)
(-1.26875e-09 0.00313353 7.98996e-14)
(-1.26765e-09 0.00313576 7.89236e-14)
(-1.27134e-09 0.00314533 1.4359e-13)
(-1.27697e-09 0.00315583 1.45513e-13)
(-1.28173e-09 0.00316633 1.43648e-13)
(-1.28632e-09 0.00317589 7.92797e-14)
(-1.28426e-09 0.00317812 7.94248e-14)
(-1.28875e-09 0.00318769 1.43161e-13)
(-1.29371e-09 0.00319819 1.45851e-13)
(-1.29902e-09 0.00320869 1.43348e-13)
(-1.30316e-09 0.00321825 7.95117e-14)
(-1.30148e-09 0.00322048 7.9223e-14)
(-1.30565e-09 0.00323005 1.43314e-13)
(-1.31088e-09 0.00324055 1.45707e-13)
(-1.31597e-09 0.00325105 1.43447e-13)
(-1.32028e-09 0.00326061 7.94157e-14)
(-1.31845e-09 0.00326284 7.92909e-14)
(-1.32275e-09 0.00327241 1.43248e-13)
(-1.32787e-09 0.00328291 1.45742e-13)
(-1.33306e-09 0.00329341 1.43402e-13)
(-1.33729e-09 0.00330297 7.94337e-14)
(-1.33553e-09 0.0033052 7.92711e-14)
(-1.33976e-09 0.00331477 1.43247e-13)
(-1.34495e-09 0.00332527 1.45733e-13)
(-1.35007e-09 0.00333577 1.43383e-13)
(-1.35437e-09 0.00334533 7.94444e-14)
(-1.35254e-09 0.00334756 7.92412e-14)
(-1.35685e-09 0.00335713 1.43274e-13)
(-1.36194e-09 0.00336763 1.45677e-13)
(-1.36717e-09 0.00337813 1.43432e-13)
(-1.37134e-09 0.00338769 7.93649e-14)
(-1.36967e-09 0.00338992 7.93278e-14)
(-1.3738e-09 0.00339949 1.43155e-13)
(-1.37911e-09 0.00340999 1.45803e-13)
(-1.38407e-09 0.00342049 1.43259e-13)
(-1.38856e-09 0.00343005 7.95567e-14)
(-1.38651e-09 0.00343228 7.90851e-14)
(-1.39109e-09 0.00344185 1.43435e-13)
(-1.39585e-09 0.00345235 1.45447e-13)
(-1.40148e-09 0.00346285 1.43667e-13)
(-1.40517e-09 0.00347241 7.90483e-14)
(-1.40408e-09 0.00347464 7.96897e-14)
(-1.40751e-09 0.00348421 1.42728e-13)
(-1.41366e-09 0.00349471 1.46961e-13)
(-1.41769e-09 0.00350529 1.4705e-13)
(-1.42384e-09 0.0035158 1.42945e-13)
(-1.42728e-09 0.00352536 7.989e-14)
(-1.42618e-09 0.00352759 7.89331e-14)
(-1.42987e-09 0.00353716 1.43599e-13)
(-1.4355e-09 0.00354766 1.45513e-13)
(-1.44026e-09 0.00355816 1.43641e-13)
(-1.44484e-09 0.00356772 7.92705e-14)
(-1.44279e-09 0.00356995 7.94353e-14)
(-1.44727e-09 0.00357952 1.4317e-13)
(-1.45224e-09 0.00359002 1.45853e-13)
(-1.45755e-09 0.00360052 1.43341e-13)
(-1.46169e-09 0.00361008 7.95054e-14)
(-1.46e-09 0.00361231 7.92314e-14)
(-1.46418e-09 0.00362188 1.43327e-13)
(-1.4694e-09 0.00363238 1.45707e-13)
(-1.4745e-09 0.00364288 1.43445e-13)
(-1.47881e-09 0.00365244 7.94044e-14)
(-1.47698e-09 0.00365467 7.93067e-14)
(-1.48128e-09 0.00366424 1.43253e-13)
(-1.48641e-09 0.00367474 1.45753e-13)
(-1.49158e-09 0.00368524 1.43389e-13)
(-1.49583e-09 0.0036948 7.94389e-14)
(-1.49405e-09 0.00369703 7.92681e-14)
(-1.49831e-09 0.0037066 1.43276e-13)
(-1.50346e-09 0.0037171 1.45717e-13)
(-1.50862e-09 0.0037276 1.43405e-13)
(-1.51287e-09 0.00373716 7.94086e-14)
(-1.5111e-09 0.00373939 7.9289e-14)
(-1.51535e-09 0.00374896 1.43243e-13)
(-1.52052e-09 0.00375946 1.45736e-13)
(-1.52565e-09 0.00376996 1.43366e-13)
(-1.52994e-09 0.00377952 7.9438e-14)
(-1.52812e-09 0.00378175 7.92451e-14)
(-1.53242e-09 0.00379132 1.43282e-13)
(-1.53752e-09 0.00380182 1.45672e-13)
(-1.54274e-09 0.00381232 1.43423e-13)
(-1.54692e-09 0.00382188 7.93534e-14)
(-1.54524e-09 0.00382411 7.93366e-14)
(-1.54937e-09 0.00383368 1.43161e-13)
(-1.55468e-09 0.00384418 1.45802e-13)
(-1.55965e-09 0.00385468 1.43249e-13)
(-1.56413e-09 0.00386424 7.95474e-14)
(-1.56208e-09 0.00386647 7.90933e-14)
(-1.56667e-09 0.00387604 1.43442e-13)
(-1.57143e-09 0.00388654 1.45447e-13)
(-1.57706e-09 0.00389704 1.43658e-13)
(-1.58074e-09 0.0039066 7.90398e-14)
(-1.57965e-09 0.00390883 7.96981e-14)
(-1.58308e-09 0.0039184 1.42737e-13)
(-1.58924e-09 0.00392891 1.46961e-13)
(-1.59326e-09 0.00393948 1.47042e-13)
(-1.59942e-09 0.00394999 1.42929e-13)
(-1.60285e-09 0.00395955 7.98771e-14)
(-1.60175e-09 0.00396178 7.89366e-14)
(-1.60544e-09 0.00397135 1.43599e-13)
(-1.61107e-09 0.00398185 1.45505e-13)
(-1.61583e-09 0.00399235 1.43626e-13)
(-1.62042e-09 0.00400191 7.92582e-14)
(-1.61836e-09 0.00400414 7.94394e-14)
(-1.62285e-09 0.00401371 1.4317e-13)
(-1.62782e-09 0.00402421 1.45846e-13)
(-1.63312e-09 0.00403471 1.43327e-13)
(-1.63726e-09 0.00404427 7.9493e-14)
(-1.63558e-09 0.0040465 7.92372e-14)
(-1.63975e-09 0.00405607 1.43327e-13)
(-1.64498e-09 0.00406657 1.45703e-13)
(-1.65007e-09 0.00407707 1.4343e-13)
(-1.65438e-09 0.00408663 7.93973e-14)
(-1.65255e-09 0.00408886 7.93071e-14)
(-1.65686e-09 0.00409843 1.43261e-13)
(-1.66197e-09 0.00410893 1.45741e-13)
(-1.66716e-09 0.00411943 1.43386e-13)
(-1.67139e-09 0.00412899 7.9418e-14)
(-1.66964e-09 0.00413123 7.92867e-14)
(-1.67387e-09 0.00414079 1.43263e-13)
(-1.67905e-09 0.00415129 1.45733e-13)
(-1.68417e-09 0.00416179 1.43371e-13)
(-1.68847e-09 0.00417135 7.94288e-14)
(-1.68664e-09 0.00417359 7.92587e-14)
(-1.69096e-09 0.00418315 1.4329e-13)
(-1.69605e-09 0.00419365 1.45681e-13)
(-1.70127e-09 0.00420415 1.4342e-13)
(-1.70545e-09 0.00421371 7.93519e-14)
(-1.70377e-09 0.00421595 7.93446e-14)
(-1.7079e-09 0.00422551 1.43174e-13)
(-1.71321e-09 0.00423601 1.45807e-13)
(-1.71818e-09 0.00424651 1.4325e-13)
(-1.72266e-09 0.00425607 7.95438e-14)
(-1.72061e-09 0.00425831 7.91037e-14)
(-1.7252e-09 0.00426787 1.43454e-13)
(-1.72995e-09 0.00427837 1.45454e-13)
(-1.73558e-09 0.00428887 1.43659e-13)
(-1.73927e-09 0.00429843 7.90375e-14)
(-1.73818e-09 0.00430067 7.97081e-14)
(-1.74161e-09 0.00431023 1.42749e-13)
(-1.74777e-09 0.00432074 1.46968e-13)
(-1.75179e-09 0.00433132 1.47042e-13)
(-1.75795e-09 0.00434182 1.42924e-13)
(-1.76138e-09 0.00435138 7.98715e-14)
(-1.76028e-09 0.00435362 7.8943e-14)
(-1.76397e-09 0.00436318 1.43605e-13)
(-1.7696e-09 0.00437368 1.45506e-13)
(-1.77436e-09 0.00438418 1.43622e-13)
(-1.77895e-09 0.00439374 7.92525e-14)
(-1.77689e-09 0.00439598 7.94469e-14)
(-1.78138e-09 0.00440554 1.43177e-13)
(-1.78634e-09 0.00441604 1.45849e-13)
(-1.79165e-09 0.00442654 1.43323e-13)
(-1.79579e-09 0.0044361 7.94899e-14)
(-1.79411e-09 0.00443834 7.92423e-14)
(-1.79828e-09 0.0044479 1.43337e-13)
(-1.8035e-09 0.0044584 1.45703e-13)
(-1.8086e-09 0.0044689 1.43431e-13)
(-1.81291e-09 0.00447846 7.93887e-14)
(-1.81109e-09 0.0044807 7.93197e-14)
(-1.81538e-09 0.00449026 1.43263e-13)
(-1.82051e-09 0.00450076 1.45752e-13)
(-1.82568e-09 0.00451126 1.43375e-13)
(-1.82993e-09 0.00452083 7.94258e-14)
(-1.82815e-09 0.00452306 7.92802e-14)
(-1.83241e-09 0.00453262 1.43288e-13)
(-1.83756e-09 0.00454312 1.45716e-13)
(-1.84272e-09 0.00455362 1.43394e-13)
(-1.84698e-09 0.00456319 7.93952e-14)
(-1.8452e-09 0.00456542 7.93032e-14)
(-1.84945e-09 0.00457498 1.43255e-13)
(-1.85462e-09 0.00458548 1.45739e-13)
(-1.85975e-09 0.00459598 1.43355e-13)
(-1.86404e-09 0.00460555 7.94272e-14)
(-1.86222e-09 0.00460778 7.92583e-14)
(-1.86653e-09 0.00461734 1.43297e-13)
(-1.87162e-09 0.00462784 1.45675e-13)
(-1.87685e-09 0.00463834 1.43416e-13)
(-1.88102e-09 0.00464791 7.93422e-14)
(-1.87934e-09 0.00465014 7.93518e-14)
(-1.88348e-09 0.0046597 1.43175e-13)
(-1.88878e-09 0.0046702 1.45807e-13)
(-1.89375e-09 0.0046807 1.43242e-13)
(-1.89824e-09 0.00469027 7.95386e-14)
(-1.89618e-09 0.0046925 7.91075e-14)
(-1.90077e-09 0.00470206 1.43459e-13)
(-1.90553e-09 0.00471256 1.45451e-13)
(-1.91116e-09 0.00472306 1.43654e-13)
(-1.91485e-09 0.00473263 7.90302e-14)
(-1.91375e-09 0.00473486 7.97146e-14)
(-1.91718e-09 0.00474442 1.42753e-13)
(-1.92334e-09 0.00475493 1.46969e-13)
(-1.92736e-09 0.00476551 1.47034e-13)
(-1.93352e-09 0.00477601 1.42913e-13)
(-1.93695e-09 0.00478558 7.98612e-14)
(-1.93585e-09 0.00478781 7.89463e-14)
(-1.93954e-09 0.00479737 1.43603e-13)
(-1.94517e-09 0.00480787 1.45501e-13)
(-1.94993e-09 0.00481837 1.4361e-13)
(-1.95452e-09 0.00482794 7.92453e-14)
(-1.95246e-09 0.00483017 7.94479e-14)
(-1.95695e-09 0.00483973 1.43178e-13)
(-1.96192e-09 0.00485023 1.45842e-13)
(-1.96723e-09 0.00486073 1.43315e-13)
(-1.97136e-09 0.0048703 7.94794e-14)
(-1.96968e-09 0.00487253 7.92477e-14)
(-1.97385e-09 0.00488209 1.43334e-13)
(-1.97908e-09 0.00489259 1.45702e-13)
(-1.98417e-09 0.00490309 1.43417e-13)
(-1.98849e-09 0.00491266 7.93862e-14)
(-1.98666e-09 0.00491489 7.93167e-14)
(-1.99096e-09 0.00492445 1.43271e-13)
(-1.99608e-09 0.00493495 1.4574e-13)
(-2.00126e-09 0.00494545 1.43377e-13)
(-2.00549e-09 0.00495502 7.94063e-14)
(-2.00374e-09 0.00495725 7.92983e-14)
(-2.00797e-09 0.00496681 1.43272e-13)
(-2.01315e-09 0.00497731 1.45735e-13)
(-2.01827e-09 0.00498781 1.43361e-13)
(-2.02257e-09 0.00499738 7.94196e-14)
(-2.02074e-09 0.00499961 7.92693e-14)
(-2.02506e-09 0.00500917 1.43302e-13)
(-2.03015e-09 0.00501967 1.45682e-13)
(-2.03538e-09 0.00503017 1.43413e-13)
(-2.03955e-09 0.00503974 7.9342e-14)
(-2.03787e-09 0.00504197 7.93572e-14)
(-2.042e-09 0.00505153 1.43185e-13)
(-2.04731e-09 0.00506203 1.45811e-13)
(-2.05228e-09 0.00507253 1.43243e-13)
(-2.05677e-09 0.0050821 7.95363e-14)
(-2.05471e-09 0.00508433 7.91151e-14)
(-2.0593e-09 0.00509389 1.43468e-13)
(-2.06406e-09 0.00510439 1.45457e-13)
(-2.06969e-09 0.00511489 1.43655e-13)
(-2.07337e-09 0.00512446 7.9029e-14)
(-2.07228e-09 0.00512669 7.97218e-14)
(-2.07571e-09 0.00513625 1.42762e-13)
(-2.08187e-09 0.00514676 1.46975e-13)
(-2.08589e-09 0.00515734 1.47035e-13)
(-2.09205e-09 0.00516784 1.4291e-13)
(-2.09548e-09 0.00517741 7.98576e-14)
(-2.09438e-09 0.00517964 7.8951e-14)
(-2.09807e-09 0.0051892 1.43609e-13)
(-2.1037e-09 0.0051997 1.45502e-13)
(-2.10846e-09 0.0052102 1.43608e-13)
(-2.11305e-09 0.00521977 7.92414e-14)
(-2.11099e-09 0.005222 7.94535e-14)
(-2.11548e-09 0.00523156 1.43183e-13)
(-2.12045e-09 0.00524206 1.45845e-13)
(-2.12575e-09 0.00525256 1.43312e-13)
(-2.12989e-09 0.00526213 7.9478e-14)
(-2.12821e-09 0.00526436 7.92511e-14)
(-2.13238e-09 0.00527392 1.43343e-13)
(-2.13761e-09 0.00528442 1.45701e-13)
(-2.1427e-09 0.00529492 1.43419e-13)
(-2.14701e-09 0.00530449 7.93792e-14)
(-2.14519e-09 0.00530672 7.93273e-14)
(-2.14948e-09 0.00531628 1.43271e-13)
(-2.15461e-09 0.00532678 1.45751e-13)
(-2.15978e-09 0.00533728 1.43366e-13)
(-2.16403e-09 0.00534685 7.94155e-14)
(-2.16226e-09 0.00534908 7.92899e-14)
(-2.16651e-09 0.00535864 1.43296e-13)
(-2.17167e-09 0.00536914 1.45717e-13)
(-2.17682e-09 0.00537964 1.43385e-13)
(-2.18108e-09 0.00538921 7.93873e-14)
(-2.1793e-09 0.00539144 7.93116e-14)
(-2.18355e-09 0.005401 1.43265e-13)
(-2.18872e-09 0.0054115 1.45739e-13)
(-2.19385e-09 0.00542201 1.43349e-13)
(-2.19814e-09 0.00543157 7.94183e-14)
(-2.19632e-09 0.0054338 7.92689e-14)
(-2.20063e-09 0.00544336 1.43306e-13)
(-2.20572e-09 0.00545386 1.45677e-13)
(-2.21095e-09 0.00546437 1.43409e-13)
(-2.21512e-09 0.00547393 7.93357e-14)
(-2.21344e-09 0.00547616 7.9361e-14)
(-2.21758e-09 0.00548572 1.43187e-13)
(-2.22289e-09 0.00549622 1.45809e-13)
(-2.22785e-09 0.00550673 1.43238e-13)
(-2.23234e-09 0.00551629 7.95311e-14)
(-2.23028e-09 0.00551852 7.91188e-14)
(-2.23487e-09 0.00552808 1.4347e-13)
(-2.23963e-09 0.00553858 1.45456e-13)
(-2.24526e-09 0.00554909 1.4365e-13)
(-2.24895e-09 0.00555865 7.90249e-14)
(-2.24785e-09 0.00556088 7.97248e-14)
(-2.25129e-09 0.00557044 1.42766e-13)
(-2.25744e-09 0.00558095 1.46973e-13)
(-2.26146e-09 0.00559153 1.47031e-13)
(-2.26762e-09 0.00560204 1.42901e-13)
(-2.27105e-09 0.0056116 7.98514e-14)
(-2.26996e-09 0.00561383 7.89518e-14)
(-2.27365e-09 0.00562339 1.43608e-13)
(-2.27927e-09 0.00563389 1.45497e-13)
(-2.28404e-09 0.0056444 1.436e-13)
(-2.28862e-09 0.00565396 7.92347e-14)
(-2.28657e-09 0.00565619 7.94553e-14)
(-2.29105e-09 0.00566575 1.43182e-13)
(-2.29602e-09 0.00567625 1.45841e-13)
(-2.30133e-09 0.00568676 1.43304e-13)
(-2.30546e-09 0.00569632 7.94712e-14)
(-2.30378e-09 0.00569855 7.92538e-14)
(-2.30796e-09 0.00570811 1.43341e-13)
(-2.31318e-09 0.00571861 1.45699e-13)
(-2.31828e-09 0.00572912 1.4341e-13)
(-2.32259e-09 0.00573868 7.93769e-14)
(-2.32076e-09 0.00574091 7.93249e-14)
(-2.32506e-09 0.00575047 1.43277e-13)
(-2.33018e-09 0.00576097 1.45741e-13)
(-2.33536e-09 0.00577148 1.43368e-13)
(-2.3396e-09 0.00578104 7.93995e-14)
(-2.33784e-09 0.00578327 7.93051e-14)
(-2.34207e-09 0.00579283 1.4328e-13)
(-2.34726e-09 0.00580333 1.45734e-13)
(-2.35238e-09 0.00581384 1.43355e-13)
(-2.35668e-09 0.0058234 7.94115e-14)
(-2.35485e-09 0.00582563 7.92783e-14)
(-2.35916e-09 0.00583519 1.43309e-13)
(-2.36425e-09 0.00584569 1.45684e-13)
(-2.36948e-09 0.0058562 1.43407e-13)
(-2.37365e-09 0.00586576 7.93363e-14)
(-2.37197e-09 0.00586799 7.93647e-14)
(-2.37611e-09 0.00587755 1.43195e-13)
(-2.38141e-09 0.00588806 1.45812e-13)
(-2.38638e-09 0.00589856 1.4324e-13)
(-2.39087e-09 0.00590812 7.95294e-14)
(-2.38881e-09 0.00591035 7.91248e-14)
(-2.3934e-09 0.00591991 1.43477e-13)
(-2.39816e-09 0.00593042 1.45461e-13)
(-2.40379e-09 0.00594092 1.43651e-13)
(-2.40748e-09 0.00595048 7.90243e-14)
(-2.40638e-09 0.00595271 7.97302e-14)
(-2.40981e-09 0.00596227 1.42773e-13)
(-2.41597e-09 0.00597278 1.46978e-13)
(-2.41999e-09 0.00598336 1.47032e-13)
(-2.42615e-09 0.00599387 1.42899e-13)
(-2.42958e-09 0.00600343 7.98491e-14)
(-2.42849e-09 0.00600566 7.89553e-14)
(-2.43218e-09 0.00601522 1.43612e-13)
(-2.4378e-09 0.00602573 1.45498e-13)
(-2.44256e-09 0.00603623 1.43599e-13)
(-2.44715e-09 0.00604579 7.92319e-14)
(-2.4451e-09 0.00604802 7.94599e-14)
(-2.44958e-09 0.00605758 1.43186e-13)
(-2.45455e-09 0.00606809 1.45843e-13)
(-2.45986e-09 0.00607859 1.43302e-13)
(-2.46399e-09 0.00608815 7.94708e-14)
(-2.46231e-09 0.00609038 7.92559e-14)
(-2.46649e-09 0.00609994 1.43348e-13)
(-2.47171e-09 0.00611045 1.45699e-13)
(-2.47681e-09 0.00612095 1.43413e-13)
(-2.48111e-09 0.00613051 7.93708e-14)
(-2.47929e-09 0.00613274 7.93344e-14)
(-2.48358e-09 0.0061423 1.43275e-13)
(-2.48871e-09 0.00615281 1.45751e-13)
(-2.49389e-09 0.00616331 1.43358e-13)
(-2.49813e-09 0.00617287 7.94095e-14)
(-2.49636e-09 0.0061751 7.92954e-14)
(-2.50061e-09 0.00618466 1.43303e-13)
(-2.50577e-09 0.00619517 1.45716e-13)
(-2.51092e-09 0.00620567 1.43381e-13)
(-2.51518e-09 0.00621523 7.93799e-14)
(-2.51341e-09 0.00621746 7.93194e-14)
(-2.51765e-09 0.00622702 1.43271e-13)
(-2.52282e-09 0.00623753 1.4574e-13)
(-2.52795e-09 0.00624803 1.43343e-13)
(-2.53225e-09 0.00625759 7.94133e-14)
(-2.53042e-09 0.00625982 7.92751e-14)
(-2.53473e-09 0.00626938 1.43315e-13)
(-2.53983e-09 0.00627989 1.45678e-13)
(-2.54505e-09 0.00629039 1.43406e-13)
(-2.54923e-09 0.00629995 7.93293e-14)
(-2.54755e-09 0.00630218 7.93695e-14)
(-2.55168e-09 0.00631174 1.43194e-13)
(-2.55699e-09 0.00632225 1.45812e-13)
(-2.56196e-09 0.00633275 1.43233e-13)
(-2.56644e-09 0.00634231 7.95272e-14)
(-2.56439e-09 0.00634454 7.91255e-14)
(-2.56897e-09 0.0063541 1.4348e-13)
(-2.57373e-09 0.00636461 1.45458e-13)
(-2.57936e-09 0.00637511 1.43648e-13)
(-2.58305e-09 0.00638467 7.90193e-14)
(-2.58196e-09 0.0063869 7.97341e-14)
(-2.58539e-09 0.00639647 1.42774e-13)
(-2.59154e-09 0.00640697 1.46978e-13)
(-2.59557e-09 0.00641755 1.47026e-13)
(-2.60172e-09 0.00642806 1.42893e-13)
(-2.60516e-09 0.00643762 7.98425e-14)
(-2.60406e-09 0.00643985 7.89574e-14)
(-2.60775e-09 0.00644942 1.4361e-13)
(-2.61338e-09 0.00645992 1.45496e-13)
(-2.61814e-09 0.00647042 1.43591e-13)
(-2.62273e-09 0.00647998 7.92285e-14)
(-2.62067e-09 0.00648221 7.94591e-14)
(-2.62516e-09 0.00649178 1.43187e-13)
(-2.63012e-09 0.00650228 1.45838e-13)
(-2.63543e-09 0.00651278 1.43298e-13)
(-2.63956e-09 0.00652234 7.94635e-14)
(-2.63789e-09 0.00652457 7.926e-14)
(-2.64206e-09 0.00653414 1.43344e-13)